ITEM: TIMESTEP
100000
ITEM: NUMBER OF ATOMS
100
ITEM: BOX BOUNDS pp pp pp
-6.83599 6.83599
-6.83599 6.83599
-6.83599 6.83599
ITEM: ATOMS id type x y z 
38 1 -3.04553 -5.45833 -6.52685 
5 1 4.36189 -5.61851 -6.43982 
17 1 -3.31973 -4.11058 -5.94296 
11 1 0.551252 -4.40954 -6.7937 
24 1 -0.446746 -3.88076 -6.4832 
1 1 5.95774 -2.28451 -6.01838 
75 2 -1.88496 -6.70291 -5.76836 
14 1 2.95289 -6.66019 -5.50811 
33 1 4.58116 0.780095 -5.38309 
34 1 -5.80838 3.34592 -5.8037 
73 2 -2.90595 3.39754 -5.78772 
23 1 -6.61516 4.86172 -5.46397 
90 2 0.41986 -1.28109 -4.75617 
52 2 -5.33211 1.6752 -4.50729 
32 1 6.27543 1.91709 -4.68062 
69 2 -2.89347 2.46181 -5.00224 
50 1 3.50493 2.50446 -4.394 
66 2 -3.48675 3.3786 -4.81332 
63 2 4.94598 3.99241 -4.22662 
81 2 6.78638 4.05403 -4.34698 
4 1 4.31491 5.09226 -4.72945 
97 2 1.55173 -5.94111 -3.35825 
30 1 -4.48035 -2.22449 -3.7606 
46 1 -0.98587 -0.0595204 -3.77302 
22 1 2.06774 3.06444 -3.51816 
8 1 -4.98668 4.58235 -3.80699 
61 2 5.24743 6.13556 -3.9556 
12 1 3.03195 -4.71192 -3.01447 
86 2 3.18429 -1.14213 -3.11098 
19 1 3.54983 1.54528 -2.66739 
47 1 -1.86639 4.49711 -2.74372 
35 1 6.44201 4.56358 -2.64593 
6 1 -0.150031 6.72189 -3.0898 
21 1 1.04025 6.47159 -3.17902 
9 1 6.53284 -5.41669 -1.98711 
31 1 -3.23072 -3.67956 -1.97376 
79 2 1.23389 -3.56894 -1.51358 
56 2 5.11621 -1.95773 -1.86225 
95 2 -2.76745 -1.3094 -1.57655 
96 2 -4.23394 6.25945 -1.53685 
91 2 -5.23498 3.32512 -0.983412 
71 2 -2.62839 3.38529 -1.23638 
42 1 1.23165 6.80557 -0.691328 
92 2 -6.30911 -5.20717 0.00936633 
39 1 -5.14205 -3.61739 0.131194 
57 2 3.49483 -3.11217 0.187785 
37 1 2.82328 -2.09808 -0.384845 
29 1 -5.94616 -0.760481 -0.0804823 
54 2 -1.34614 -0.606875 -0.00523927 
58 2 0.0273286 -0.425343 0.136024 
13 1 1.76133 0.271248 0.264364 
93 2 3.13578 0.477867 0.188681 
15 1 0.59259 1.55524 0.162836 
51 2 4.74529 1.87117 -0.0895729 
85 2 -5.68637 4.82199 -0.394209 
3 1 -0.667815 6.17398 -0.328309 
59 2 3.48159 6.33148 -0.284904 
43 1 6.08997 6.59738 -0.356554 
89 2 -5.55159 -5.4498 1.31488 
16 1 -0.762584 -5.40532 0.577001 
82 2 1.00269 -5.0681 0.703213 
67 2 -5.26264 -4.5214 0.678731 
10 1 4.91604 -2.19001 1.05248 
62 2 4.61916 6.04779 1.09063 
74 2 -3.69898 -5.60501 2.00451 
65 2 6.33805 -3.98967 1.93975 
27 1 -5.81332 2.16218 2.07149 
80 2 -5.10903 3.68353 1.94752 
76 2 3.66233 3.81063 1.81405 
40 1 -4.44065 6.04797 2.02534 
100 2 0.348246 -5.52736 3.05591 
20 1 6.70206 -1.46466 2.64248 
2 1 6.11211 -0.583625 2.63741 
7 1 6.61964 6.24833 2.87467 
84 2 -3.27403 -3.63393 3.31099 
78 2 5.30814 -2.84091 3.86076 
64 2 0.0835697 5.58466 3.84792 
94 2 -0.879476 6.23771 3.82189 
49 1 4.58088 -6.29387 4.3444 
99 2 -4.44534 -1.55877 4.52179 
77 2 -6.30568 -0.776007 4.72588 
36 1 1.23481 1.06546 4.31341 
18 1 -5.83316 3.18434 4.79443 
28 1 -4.71625 5.47387 4.49436 
88 2 -3.58957 6.01753 4.56183 
68 2 4.8032 -4.66261 5.30701 
41 1 0.358026 -3.12672 5.17629 
55 2 -0.371109 -1.65217 5.86284 
83 2 -5.04571 0.182362 5.56529 
45 1 5.82915 -5.32111 6.42658 
70 2 -2.34498 -4.25498 5.98916 
98 2 -1.38104 -4.26494 6.40033 
44 1 -5.51694 -3.21089 6.72521 
48 1 2.28544 -3.51308 6.62057 
53 2 -3.21099 -1.53602 5.96373 
25 1 2.65112 -2.2582 6.75956 
26 1 4.81897 -1.38059 6.19857 
60 2 4.92562 0.820682 6.49011 
72 2 1.94162 1.48995 6.48562 
87 2 3.82986 1.71914 6.27014 
ITEM: TIMESTEP
101000
ITEM: NUMBER OF ATOMS
100
ITEM: BOX BOUNDS pp pp pp
-6.83599 6.83599
-6.83599 6.83599
-6.83599 6.83599
ITEM: ATOMS id type x y z 
38 1 -3.01551 -5.48927 -6.43817 
5 1 4.29882 -5.59038 -6.41731 
17 1 -3.45636 -4.19536 -5.87171 
11 1 0.580813 -4.29859 6.80639 
24 1 -0.43612 -3.95598 -6.56172 
1 1 5.9874 -2.42955 -6.03063 
75 2 -1.86657 -6.69363 -5.75142 
14 1 2.85446 -6.60687 -5.45482 
33 1 4.59053 0.797253 -5.32966 
34 1 -5.79679 3.35962 -5.79512 
73 2 -2.84243 3.50674 -5.85769 
23 1 -6.52241 4.86464 -5.47703 
90 2 0.540287 -1.45851 -4.75876 
52 2 -5.30653 1.73115 -4.59902 
32 1 6.34918 1.9299 -4.60211 
69 2 -2.90422 2.51416 -4.98235 
50 1 3.48242 2.45188 -4.5012 
66 2 -3.54669 3.30208 -4.88898 
63 2 4.97242 3.95546 -4.44066 
81 2 -6.78479 4.15413 -4.3072 
4 1 4.23898 5.16664 -4.72467 
97 2 1.51933 -6.02151 -3.34336 
30 1 -4.45753 -2.29901 -3.68938 
46 1 -0.96791 -0.030808 -3.87778 
22 1 2.09682 3.0565 -3.54123 
8 1 -5.09341 4.52748 -3.86137 
61 2 5.232 6.25549 -3.99621 
12 1 2.8838 -4.76708 -3.04061 
86 2 3.26109 -1.07329 -3.17553 
19 1 3.59523 1.54938 -2.66447 
47 1 -1.78716 4.27886 -2.68938 
35 1 6.37837 4.66561 -2.65865 
6 1 -0.197358 6.71527 -3.01491 
21 1 0.981467 6.55682 -3.12516 
9 1 6.40147 -5.43762 -2.07442 
31 1 -3.26819 -3.74608 -1.99702 
79 2 1.27736 -3.6502 -1.50823 
56 2 5.15093 -1.95853 -1.81192 
95 2 -2.77882 -1.39492 -1.48446 
96 2 -4.22064 6.39327 -1.56125 
91 2 -5.31031 3.5694 -0.969379 
71 2 -2.68968 3.3139 -1.16193 
42 1 1.03888 -6.81532 -0.746636 
92 2 -6.25019 -5.18848 0.070643 
39 1 -5.11928 -3.58285 0.00752766 
57 2 3.41179 -3.09892 0.212791 
37 1 2.69513 -2.12189 -0.305884 
29 1 -5.761 -0.71269 -0.206204 
54 2 -1.37092 -0.633148 -0.0366072 
58 2 -0.0188014 -0.478538 0.0778154 
13 1 1.70692 0.332941 0.277138 
93 2 3.19344 0.431916 0.172047 
15 1 0.584472 1.51219 0.176105 
51 2 4.63592 1.88446 -0.119233 
85 2 -5.64098 4.83328 -0.437305 
3 1 -0.635554 6.08881 -0.305305 
59 2 3.5496 6.30134 -0.218285 
43 1 6.11233 6.60947 -0.348929 
89 2 -5.62271 -5.60173 1.30243 
16 1 -0.780771 -5.50634 0.644514 
82 2 0.982657 -5.1385 0.763903 
67 2 -5.31094 -4.40575 0.691551 
10 1 4.77279 -2.21294 1.03064 
62 2 4.5102 6.08985 0.964189 
74 2 -3.7251 -5.46133 1.92748 
65 2 6.22127 -3.87778 1.82986 
27 1 -5.88484 2.26124 1.88092 
80 2 -5.06223 3.70949 2.01928 
76 2 3.53589 3.65194 1.82043 
40 1 -4.33378 6.02522 2.02672 
100 2 0.306955 -5.49906 3.13225 
20 1 6.80731 -1.40411 2.68807 
2 1 6.08855 -0.622492 2.7433 
7 1 6.52803 6.27336 2.79556 
84 2 -3.18665 -3.65549 3.24903 
78 2 5.39259 -2.87083 3.85217 
64 2 0.122344 5.52206 3.98315 
94 2 -0.79146 6.13963 3.83585 
49 1 4.6095 -6.21123 4.28241 
99 2 -4.35823 -1.67509 4.54503 
77 2 -6.21033 -0.872098 4.87864 
36 1 1.2865 1.05744 4.36811 
18 1 -5.85462 3.11472 4.8078 
28 1 -4.67032 5.4704 4.48728 
88 2 -3.63165 6.0639 4.67995 
68 2 4.77846 -4.71543 5.40601 
41 1 0.421176 -3.15863 5.1011 
55 2 -0.599178 -1.61548 5.77932 
83 2 -5.09318 0.178105 5.64981 
45 1 5.68829 -5.23369 6.40007 
70 2 -2.46945 -4.24676 6.06403 
98 2 -1.44474 -4.13681 6.42775 
44 1 -5.42954 -3.18546 6.68994 
48 1 2.18384 -3.52632 6.58467 
53 2 -3.27706 -1.43288 5.91964 
25 1 2.70978 -2.26846 6.70646 
26 1 4.88289 -1.39439 6.24216 
60 2 4.88748 0.881068 6.48646 
72 2 2.01113 1.44269 6.61002 
87 2 3.80238 1.72593 6.3228 
ITEM: TIMESTEP
102000
ITEM: NUMBER OF ATOMS
100
ITEM: BOX BOUNDS pp pp pp
-6.83599 6.83599
-6.83599 6.83599
-6.83599 6.83599
ITEM: ATOMS id type x y z 
38 1 -2.96886 -5.49545 -6.32836 
5 1 4.24992 -5.55286 -6.38644 
24 1 -0.383458 -4.02505 -6.61657 
1 1 6.02039 -2.51302 -6.01454 
75 2 -1.82782 -6.77007 -5.75624 
14 1 2.77737 -6.57051 -5.42896 
17 1 -3.55185 -4.24509 -5.81868 
33 1 4.61729 0.804779 -5.32477 
34 1 -5.80981 3.39372 -5.77304 
73 2 -2.78702 3.62053 -5.90214 
23 1 -6.41335 4.89246 -5.53177 
90 2 0.664251 -1.54719 -4.77751 
52 2 -5.28819 1.75839 -4.66234 
32 1 6.36379 1.93175 -4.55794 
69 2 -2.89928 2.50735 -4.96815 
50 1 3.4569 2.41166 -4.65603 
66 2 -3.66116 3.34373 -4.95296 
63 2 4.97639 3.96032 -4.64017 
81 2 -6.73733 4.15288 -4.23851 
4 1 4.21005 5.21252 -4.73081 
97 2 1.47179 -6.09887 -3.37447 
30 1 -4.43299 -2.32482 -3.61444 
46 1 -0.895031 0.0230029 -3.95393 
22 1 2.14768 3.03649 -3.56139 
8 1 -5.19211 4.53672 -3.9206 
61 2 5.14986 6.31521 -4.03297 
12 1 2.76761 -4.7913 -3.12796 
86 2 3.33203 -1.0098 -3.25471 
19 1 3.66621 1.54726 -2.67842 
47 1 -1.69425 4.09686 -2.65153 
35 1 6.41031 4.77404 -2.65693 
6 1 -0.305203 6.70062 -2.93538 
21 1 1.03997 6.65968 -3.11809 
9 1 6.31181 -5.43132 -2.1698 
31 1 -3.31016 -3.82657 -2.03534 
79 2 1.31546 -3.70802 -1.54892 
95 2 -2.78938 -1.49046 -1.37518 
56 2 5.16751 -1.96043 -1.83682 
96 2 -4.21009 6.50876 -1.56069 
42 1 0.877269 -6.7363 -0.797431 
91 2 -5.33161 3.75382 -0.920922 
71 2 -2.75259 3.22677 -1.06519 
92 2 -6.20575 -5.1867 0.111539 
39 1 -5.08355 -3.49917 -0.155364 
57 2 3.3471 -3.12162 0.248242 
37 1 2.56975 -2.15438 -0.315458 
29 1 -5.57157 -0.648414 -0.304294 
54 2 -1.39695 -0.680156 -0.048543 
58 2 -0.0701023 -0.49883 0.0382298 
13 1 1.65131 0.401837 0.286535 
93 2 3.21546 0.40138 0.184329 
15 1 0.560663 1.45555 0.195625 
51 2 4.54316 1.89142 -0.159976 
85 2 -5.63039 4.8676 -0.496284 
3 1 -0.652528 6.01541 -0.280008 
59 2 3.60149 6.26233 -0.173864 
43 1 6.12542 6.65751 -0.394955 
89 2 -5.642 -5.73741 1.25517 
16 1 -0.827299 -5.58884 0.649874 
82 2 0.996901 -5.26675 0.826411 
67 2 -5.35155 -4.30579 0.729124 
10 1 4.64733 -2.19594 1.01359 
62 2 4.36681 6.08932 0.848975 
74 2 -3.74338 -5.29652 1.87101 
65 2 6.137 -3.79227 1.71687 
27 1 -5.95885 2.37392 1.66688 
80 2 -5.03419 3.76891 2.05337 
76 2 3.42051 3.49403 1.83225 
40 1 -4.2332 5.95542 2.03067 
100 2 0.257645 -5.43109 3.16455 
20 1 -6.75386 -1.37893 2.70916 
2 1 6.05598 -0.629717 2.8014 
7 1 6.41128 6.34122 2.77908 
84 2 -3.13395 -3.7145 3.16706 
78 2 5.49046 -2.88332 3.87206 
64 2 0.18503 5.43544 4.11138 
94 2 -0.755321 6.08163 3.81852 
49 1 4.67296 -6.19108 4.19669 
99 2 -4.32849 -1.8384 4.58888 
77 2 -6.10978 -0.963079 4.99909 
36 1 1.27167 1.1225 4.42255 
18 1 -5.84622 3.00687 4.80647 
28 1 -4.60148 5.45113 4.4621 
88 2 -3.67777 6.10072 4.8043 
68 2 4.7643 -4.80808 5.44246 
41 1 0.515623 -3.20555 5.02037 
53 2 -3.30684 -1.37003 5.87193 
55 2 -0.7397 -1.63329 5.712 
83 2 -5.10742 0.173764 5.75812 
45 1 5.55594 -5.17107 6.40092 
70 2 -2.60814 -4.23243 6.15774 
98 2 -1.53164 -4.02615 6.46459 
11 1 0.613577 -4.20947 6.74796 
48 1 2.09214 -3.54939 6.51911 
44 1 -5.33216 -3.16986 6.64931 
25 1 2.73156 -2.28137 6.65419 
26 1 4.93941 -1.40693 6.28992 
60 2 4.83933 0.948732 6.49468 
72 2 2.07793 1.38874 6.68649 
87 2 3.76591 1.68028 6.38355 
ITEM: TIMESTEP
103000
ITEM: NUMBER OF ATOMS
100
ITEM: BOX BOUNDS pp pp pp
-6.83599 6.83599
-6.83599 6.83599
-6.83599 6.83599
ITEM: ATOMS id type x y z 
38 1 -2.92781 -5.4552 -6.22912 
5 1 4.19146 -5.51432 -6.36963 
24 1 -0.343684 -4.04709 -6.62578 
1 1 6.03647 -2.55362 -6.00144 
75 2 -1.82086 6.7961 -5.81411 
14 1 2.68986 -6.57202 -5.42613 
17 1 -3.63862 -4.24612 -5.74862 
33 1 4.71229 0.809356 -5.34626 
34 1 -5.8305 3.37821 -5.75461 
73 2 -2.75399 3.7189 -5.97501 
23 1 -6.29887 4.93112 -5.59019 
90 2 0.752583 -1.56108 -4.85559 
52 2 -5.27686 1.7422 -4.70546 
32 1 6.35897 1.96923 -4.51167 
69 2 -2.95676 2.51106 -4.92597 
50 1 3.45132 2.39547 -4.78891 
66 2 -3.76548 3.43374 -5.07232 
63 2 4.94889 4.00315 -4.81449 
81 2 -6.73384 4.14387 -4.18705 
4 1 4.19986 5.24416 -4.75626 
97 2 1.48591 -6.05048 -3.45621 
30 1 -4.3792 -2.39981 -3.52414 
86 2 3.41611 -0.964003 -3.30101 
46 1 -0.810369 0.0514062 -3.9919 
22 1 2.16935 3.00181 -3.62057 
8 1 -5.24457 4.60794 -4.00428 
61 2 5.02485 6.3315 -4.09289 
12 1 2.68304 -4.78778 -3.20938 
19 1 3.7525 1.5666 -2.72216 
47 1 -1.59987 3.89871 -2.591 
35 1 6.45259 4.8639 -2.67694 
6 1 -0.420054 6.67083 -2.85507 
21 1 1.05833 6.59948 -3.09381 
9 1 6.2386 -5.41228 -2.21714 
31 1 -3.34069 -3.92704 -2.1009 
79 2 1.35304 -3.74671 -1.57388 
95 2 -2.81104 -1.61674 -1.25885 
56 2 5.1783 -1.92565 -1.86542 
96 2 -4.21732 6.58406 -1.5401 
42 1 0.719047 -6.66713 -0.752943 
91 2 -5.28158 3.94265 -0.879078 
71 2 -2.82911 3.12344 -0.974922 
85 2 -5.59988 4.89949 -0.569095 
92 2 -6.14448 -5.19484 0.156899 
39 1 -5.04332 -3.42664 -0.331856 
57 2 3.30975 -3.11583 0.247641 
37 1 2.4617 -2.15412 -0.315413 
29 1 -5.36139 -0.570028 -0.407536 
54 2 -1.42179 -0.708864 -0.0538135 
58 2 -0.127677 -0.513094 -0.00848129 
13 1 1.57505 0.515353 0.300871 
93 2 3.19883 0.378683 0.187743 
15 1 0.530352 1.36304 0.223974 
51 2 4.47739 1.9043 -0.237159 
3 1 -0.683328 5.93843 -0.256171 
59 2 3.65347 6.21349 -0.134697 
43 1 6.16552 6.71231 -0.462432 
89 2 -5.642 -5.81021 1.2077 
16 1 -0.87201 -5.67112 0.677291 
82 2 1.01702 -5.37449 0.888134 
67 2 -5.38303 -4.18283 0.746761 
10 1 4.56376 -2.15008 1.00709 
62 2 4.23353 6.10575 0.741387 
74 2 -3.7434 -5.20523 1.8154 
65 2 6.07038 -3.73364 1.61361 
27 1 -5.99379 2.4665 1.47239 
80 2 -5.00997 3.79937 2.09317 
76 2 3.32146 3.32398 1.84357 
40 1 -4.12925 5.93643 2.0221 
100 2 0.202198 -5.37211 3.18856 
84 2 -3.1187 -3.80834 3.05479 
20 1 -6.63701 -1.38736 2.70394 
2 1 6.02281 -0.587644 2.84877 
7 1 6.28449 6.39619 2.81794 
78 2 5.56464 -2.87416 3.87565 
94 2 -0.738826 6.06023 3.76939 
49 1 4.76021 -6.20262 4.0924 
99 2 -4.31428 -1.95833 4.65915 
77 2 -6.02853 -1.0544 5.13466 
36 1 1.25256 1.22534 4.47883 
18 1 -5.83254 2.87466 4.77768 
28 1 -4.49929 5.41019 4.45183 
64 2 0.236015 5.34615 4.2395 
88 2 -3.72508 6.09074 4.92203 
68 2 4.75059 -4.93241 5.47906 
41 1 0.66401 -3.27866 4.95717 
53 2 -3.31842 -1.33916 5.79218 
55 2 -0.855603 -1.6479 5.58992 
83 2 -5.15629 0.206777 5.86751 
45 1 5.45717 -5.17612 6.41742 
70 2 -2.74532 -4.23734 6.22489 
11 1 0.719478 -4.12165 6.71101 
98 2 -1.59223 -3.90875 6.48464 
48 1 2.02114 -3.59215 6.45352 
44 1 -5.2392 -3.08123 6.64104 
25 1 2.75575 -2.28975 6.61579 
26 1 4.99492 -1.41855 6.31878 
60 2 4.78739 0.989889 6.49745 
72 2 2.09588 1.35158 6.75723 
87 2 3.73251 1.65164 6.43001 
ITEM: TIMESTEP
104000
ITEM: NUMBER OF ATOMS
100
ITEM: BOX BOUNDS pp pp pp
-6.83599 6.83599
-6.83599 6.83599
-6.83599 6.83599
ITEM: ATOMS id type x y z 
38 1 -2.87179 -5.42787 -6.11321 
5 1 4.11377 -5.46318 -6.36985 
24 1 -0.344797 -4.0507 -6.62676 
1 1 6.03322 -2.57686 -6.00753 
73 2 -2.73724 3.82422 -6.0564 
14 1 2.60491 -6.55787 -5.38144 
17 1 -3.73126 -4.08816 -5.73298 
33 1 4.82637 0.858986 -5.39007 
34 1 -5.86383 3.34669 -5.7403 
66 2 -3.86378 3.54652 -5.18927 
23 1 -6.21798 4.91925 -5.62381 
75 2 -1.80551 6.70557 -5.81613 
90 2 0.856437 -1.60189 -4.88061 
52 2 -5.28454 1.72422 -4.75643 
32 1 6.34359 2.02574 -4.47136 
69 2 -2.99342 2.52438 -4.87692 
50 1 3.40471 2.43737 -4.87967 
63 2 4.89934 4.05817 -4.99732 
81 2 -6.72594 4.12383 -4.14832 
4 1 4.20529 5.24672 -4.80422 
97 2 1.48566 -5.9811 -3.56094 
12 1 2.603 -4.78815 -3.31532 
30 1 -4.31798 -2.45446 -3.48312 
86 2 3.4503 -0.917619 -3.29465 
46 1 -0.74176 0.0556802 -4.009 
22 1 2.13247 2.99634 -3.66439 
8 1 -5.3406 4.6362 -4.08067 
61 2 4.91661 6.35473 -4.15761 
19 1 3.81248 1.6104 -2.78673 
47 1 -1.46973 3.69913 -2.54464 
35 1 6.45181 5.01206 -2.67849 
6 1 -0.595761 6.61978 -2.78432 
21 1 1.07675 6.51247 -3.02382 
9 1 6.17989 -5.41047 -2.2488 
31 1 -3.3627 -4.0346 -2.17775 
79 2 1.38012 -3.81551 -1.59101 
56 2 5.17434 -1.87679 -1.8914 
96 2 -4.20459 6.62092 -1.46223 
42 1 0.56331 -6.62488 -0.717344 
95 2 -2.82659 -1.76046 -1.1365 
71 2 -2.91134 3.05464 -0.896393 
91 2 -5.20088 4.02452 -0.915387 
85 2 -5.60253 5.01063 -0.573686 
43 1 6.16948 6.76338 -0.54092 
92 2 -6.1045 -5.20607 0.250276 
39 1 -4.97348 -3.37539 -0.524521 
57 2 3.30946 -3.12769 0.228686 
37 1 2.32633 -2.1402 -0.300319 
29 1 -5.14269 -0.471187 -0.49864 
54 2 -1.44547 -0.706918 -0.0332553 
58 2 -0.180957 -0.521146 -0.0655997 
93 2 3.19179 0.32972 0.204101 
15 1 0.475746 1.27834 0.281795 
13 1 1.49188 0.657692 0.319794 
51 2 4.44097 1.89063 -0.27596 
3 1 -0.705479 5.839 -0.23803 
59 2 3.62302 6.18916 -0.209458 
89 2 -5.63015 -5.85926 1.14376 
16 1 -0.942824 -5.74718 0.719482 
82 2 1.01781 -5.43125 0.964426 
67 2 -5.43568 -4.05587 0.761315 
10 1 4.46035 -2.13317 1.02196 
62 2 4.18377 6.10261 0.772749 
74 2 -3.80203 -5.13668 1.75768 
65 2 6.07048 -3.6676 1.53644 
27 1 -6.01154 2.52947 1.31264 
80 2 -4.99463 3.8109 2.1225 
76 2 3.23626 3.15718 1.86441 
40 1 -4.04518 5.91871 2.03726 
84 2 -3.09032 -3.94852 2.88108 
20 1 -6.53117 -1.43393 2.70643 
2 1 5.99088 -0.543823 2.8731 
7 1 6.10009 6.4291 2.89451 
49 1 4.82764 -6.14612 4.0057 
100 2 0.103947 -5.33817 3.24903 
78 2 5.55899 -2.86168 3.83031 
94 2 -0.719307 6.04137 3.69652 
41 1 0.857441 -3.29884 4.88027 
99 2 -4.29905 -2.06486 4.73232 
36 1 1.2557 1.33189 4.52126 
18 1 -5.79636 2.77348 4.75554 
28 1 -4.39657 5.3298 4.46338 
64 2 0.287703 5.24086 4.42478 
88 2 -3.81732 6.067 5.00668 
68 2 4.68725 -5.04323 5.48284 
55 2 -0.971773 -1.67542 5.48053 
77 2 -5.94271 -1.08705 5.27234 
53 2 -3.33114 -1.32691 5.70254 
83 2 -5.23996 0.321504 5.99144 
45 1 5.36729 -5.26165 6.42338 
70 2 -2.88454 -4.2611 6.28333 
11 1 0.849426 -4.10035 6.65697 
98 2 -1.63995 -3.79992 6.4946 
48 1 1.97268 -3.70782 6.43156 
44 1 -5.17957 -2.95635 6.61886 
25 1 2.80759 -2.24921 6.55005 
26 1 5.04917 -1.45069 6.34571 
72 2 2.11184 1.31421 6.82397 
60 2 4.73047 1.02803 6.49302 
87 2 3.68886 1.69621 6.433 
ITEM: TIMESTEP
105000
ITEM: NUMBER OF ATOMS
100
ITEM: BOX BOUNDS pp pp pp
-6.83599 6.83599
-6.83599 6.83599
-6.83599 6.83599
ITEM: ATOMS id type x y z 
38 1 -2.81234 -5.41623 -5.97912 
5 1 4.06482 -5.42938 -6.37492 
24 1 -0.365259 -4.07312 -6.59043 
1 1 6.0631 -2.58807 -5.99123 
73 2 -2.71896 3.88945 -6.13574 
14 1 2.52307 -6.55184 -5.30597 
17 1 -3.7627 -3.94589 -5.6848 
33 1 4.93861 0.890062 -5.41298 
34 1 -5.90326 3.3293 -5.75757 
66 2 -3.95563 3.64791 -5.2996 
23 1 -6.16106 4.90015 -5.61263 
75 2 -1.75338 6.62748 -5.83346 
90 2 1.04655 -1.5981 -4.85694 
52 2 -5.32246 1.71217 -4.83827 
32 1 6.34666 2.06586 -4.42211 
69 2 -3.00855 2.5534 -4.85434 
50 1 3.35311 2.42535 -4.98146 
63 2 4.82496 4.11016 -5.14696 
81 2 -6.71693 4.08799 -4.10657 
4 1 4.20155 5.19847 -4.84444 
61 2 4.86505 6.36451 -4.23386 
97 2 1.45084 -5.966 -3.67607 
12 1 2.55524 -4.80537 -3.39538 
30 1 -4.26258 -2.43361 -3.48411 
86 2 3.46338 -0.844135 -3.31007 
46 1 -0.678232 0.0446019 -4.01874 
22 1 2.08722 3.01513 -3.68429 
8 1 -5.46711 4.63562 -4.1642 
19 1 3.87344 1.68852 -2.85115 
47 1 -1.36465 3.5207 -2.52645 
35 1 6.52372 5.18075 -2.67525 
6 1 -0.781385 6.59678 -2.75547 
21 1 1.10933 6.43653 -2.98961 
9 1 6.12685 -5.40866 -2.23561 
31 1 -3.36648 -4.11166 -2.21775 
79 2 1.41305 -3.89926 -1.62749 
56 2 5.16986 -1.84498 -1.88855 
96 2 -4.23145 6.68386 -1.36461 
42 1 0.415632 -6.56848 -0.752801 
39 1 -4.88604 -3.32099 -0.732135 
95 2 -2.85522 -1.87828 -1.02169 
29 1 -4.95517 -0.399122 -0.601289 
71 2 -3.02702 3.01206 -0.829935 
91 2 -5.09891 4.01281 -0.948156 
85 2 -5.63044 5.19231 -0.534536 
43 1 6.18477 6.78282 -0.622713 
92 2 -6.05103 -5.21501 0.367985 
57 2 3.34798 -3.15305 0.229254 
37 1 2.18642 -2.16271 -0.284077 
54 2 -1.45945 -0.683981 -0.0371334 
58 2 -0.245787 -0.506381 -0.152297 
93 2 3.19049 0.252905 0.236667 
15 1 0.406142 1.2012 0.346019 
13 1 1.40605 0.787168 0.350188 
51 2 4.38317 1.85475 -0.237735 
3 1 -0.738618 5.72928 -0.227141 
59 2 3.59179 6.1995 -0.291056 
89 2 -5.62009 -5.92828 1.06869 
16 1 -1.02934 -5.85003 0.743391 
82 2 1.01818 -5.45447 1.01571 
67 2 -5.49054 -3.97712 0.723471 
10 1 4.34768 -2.12633 1.00263 
27 1 -6.0164 2.61623 1.15341 
62 2 4.15994 6.10553 0.848238 
74 2 -3.86453 -5.08292 1.6711 
65 2 6.09009 -3.60189 1.46589 
76 2 3.21509 3.00186 1.85934 
80 2 -5.02129 3.81356 2.14892 
40 1 -3.96029 5.88575 2.01112 
84 2 -3.03765 -4.0544 2.6909 
20 1 -6.43202 -1.49167 2.71036 
2 1 5.9738 -0.531393 2.88 
7 1 5.94365 6.46817 2.92457 
49 1 4.90453 -6.0959 3.91349 
100 2 0.0217379 -5.29794 3.27022 
78 2 5.58717 -2.82759 3.79499 
94 2 -0.705316 6.03159 3.61617 
41 1 1.07049 -3.31178 4.80117 
99 2 -4.29249 -2.14394 4.82033 
36 1 1.231 1.4764 4.52692 
18 1 -5.78834 2.69694 4.74301 
28 1 -4.3169 5.24008 4.45526 
64 2 0.335364 5.16459 4.63521 
88 2 -3.89012 6.09505 5.08864 
68 2 4.61337 -5.16747 5.46729 
55 2 -0.992338 -1.70551 5.33982 
77 2 -5.85544 -1.10004 5.43611 
53 2 -3.33343 -1.29163 5.61967 
45 1 5.29296 -5.35644 6.435 
70 2 -3.00351 -4.26357 6.33648 
98 2 -1.68566 -3.72559 6.52446 
11 1 0.926538 -4.07991 6.6161 
48 1 1.95466 -3.80435 6.44039 
44 1 -5.1315 -2.84294 6.5945 
25 1 2.8641 -2.18473 6.45579 
26 1 5.10779 -1.46288 6.35382 
83 2 -5.33006 0.416733 6.12253 
72 2 2.13024 1.26835 -6.79438 
60 2 4.67419 1.06243 6.48709 
87 2 3.67553 1.79787 6.40659 
ITEM: TIMESTEP
106000
ITEM: NUMBER OF ATOMS
100
ITEM: BOX BOUNDS pp pp pp
-6.83599 6.83599
-6.83599 6.83599
-6.83599 6.83599
ITEM: ATOMS id type x y z 
38 1 -2.79972 -5.42076 -5.88397 
5 1 4.03655 -5.41194 -6.34157 
24 1 -0.356516 -4.07042 -6.52985 
1 1 6.09999 -2.59067 -5.9604 
72 2 2.11113 1.25274 -6.78027 
73 2 -2.72381 3.94946 -6.23065 
14 1 2.45503 -6.61257 -5.25168 
17 1 -3.7666 -3.81961 -5.63408 
33 1 5.0915 0.919621 -5.47455 
34 1 -5.96435 3.30551 -5.79403 
66 2 -4.03045 3.71994 -5.35436 
23 1 -6.07606 4.91241 -5.58525 
63 2 4.74871 4.1891 -5.22748 
75 2 -1.74849 6.51992 -5.83909 
90 2 1.21342 -1.57529 -4.83286 
52 2 -5.37451 1.71888 -4.90441 
32 1 6.40701 2.09853 -4.44015 
69 2 -3.04923 2.60715 -4.80425 
50 1 3.3526 2.4201 -5.11911 
81 2 -6.72537 4.05135 -4.05721 
8 1 -5.60246 4.62591 -4.24146 
4 1 4.19232 5.19911 -4.81209 
61 2 4.80954 6.35454 -4.31683 
97 2 1.41202 -5.97708 -3.76079 
12 1 2.49245 -4.85647 -3.45132 
30 1 -4.22877 -2.43191 -3.4917 
86 2 3.52227 -0.735528 -3.34068 
46 1 -0.624805 0.0279209 -4.05694 
22 1 2.071 3.01896 -3.69548 
19 1 3.9235 1.74522 -2.90809 
47 1 -1.27444 3.36004 -2.48818 
35 1 6.5873 5.35774 -2.71127 
6 1 -0.902402 6.57471 -2.76408 
21 1 1.13773 6.38778 -3.01094 
9 1 6.0864 -5.39129 -2.23154 
31 1 -3.36571 -4.14763 -2.25102 
79 2 1.45071 -3.98789 -1.65337 
56 2 5.16596 -1.79548 -1.90404 
42 1 0.272035 -6.48331 -0.770157 
39 1 -4.80551 -3.28712 -0.921229 
95 2 -2.94114 -1.94602 -0.926517 
29 1 -4.7683 -0.385079 -0.693957 
71 2 -3.12089 2.95764 -0.777642 
91 2 -4.96679 3.97315 -0.955055 
85 2 -5.66778 5.34432 -0.478587 
96 2 -4.25535 6.81078 -1.30066 
43 1 6.23606 6.79853 -0.716054 
92 2 -5.9909 -5.22853 0.48105 
57 2 3.41207 -3.17797 0.260024 
37 1 2.03023 -2.18193 -0.265283 
54 2 -1.47839 -0.668621 -0.0581675 
58 2 -0.281974 -0.454255 -0.23891 
93 2 3.21512 0.174116 0.257063 
15 1 0.28954 1.15148 0.373439 
13 1 1.34696 0.91682 0.378512 
51 2 4.33795 1.84429 -0.179469 
3 1 -0.766724 5.61242 -0.26228 
59 2 3.59215 6.21496 -0.374318 
89 2 -5.594 -6.02558 1.00083 
16 1 -1.10218 -5.95572 0.783949 
82 2 0.962526 -5.48736 1.08329 
67 2 -5.55737 -3.86821 0.706542 
10 1 4.30307 -2.11706 1.00581 
27 1 -6.01837 2.70461 0.995319 
62 2 4.17405 6.09047 0.926605 
74 2 -3.96967 -5.0382 1.57524 
65 2 6.08177 -3.5673 1.42868 
76 2 3.22253 2.85573 1.83477 
80 2 -5.06703 3.82785 2.20032 
40 1 -3.88079 5.86618 1.97273 
84 2 -3.03233 -4.10913 2.4986 
20 1 -6.31479 -1.55089 2.74685 
2 1 5.9761 -0.530892 2.89985 
7 1 5.76243 6.47656 2.96646 
49 1 4.98785 -6.06933 3.80434 
100 2 0.00930921 -5.2984 3.26034 
78 2 5.62088 -2.80727 3.78545 
94 2 -0.697101 6.03293 3.5424 
41 1 1.3041 -3.34883 4.77393 
99 2 -4.29321 -2.25649 4.91411 
36 1 1.18078 1.63971 4.54474 
18 1 -5.7423 2.66869 4.71685 
28 1 -4.27679 5.1705 4.44472 
64 2 0.381178 5.10627 4.86673 
68 2 4.5332 -5.28879 5.4169 
55 2 -1.04379 -1.71198 5.17543 
77 2 -5.80411 -1.09499 5.59789 
53 2 -3.3441 -1.2584 5.5339 
88 2 -3.9439 6.15179 5.15776 
45 1 5.26572 -5.47967 6.42258 
70 2 -3.08289 -4.24067 6.40707 
98 2 -1.66426 -3.6167 6.54109 
11 1 0.879416 -4.03967 6.61079 
48 1 2.04992 -3.80627 6.45107 
44 1 -5.07621 -2.81723 6.58748 
25 1 2.92845 -2.12781 6.37504 
26 1 5.21508 -1.44667 6.32149 
83 2 -5.38515 0.478882 6.20379 
60 2 4.62262 1.05065 6.47914 
87 2 3.69102 1.89895 6.40136 
ITEM: TIMESTEP
107000
ITEM: NUMBER OF ATOMS
100
ITEM: BOX BOUNDS pp pp pp
-6.83599 6.83599
-6.83599 6.83599
-6.83599 6.83599
ITEM: ATOMS id type x y z 
5 1 3.99275 -5.35458 -6.27855 
24 1 -0.32974 -4.12438 -6.53005 
1 1 6.15751 -2.56798 -5.9327 
72 2 2.08924 1.24005 -6.75959 
73 2 -2.79211 3.96816 -6.33066 
14 1 2.4203 -6.65471 -5.22892 
38 1 -2.79871 -5.3712 -5.82215 
17 1 -3.78488 -3.70565 -5.58325 
33 1 5.22194 1.0265 -5.48561 
50 1 3.35807 2.45926 -5.24102 
34 1 -5.97473 3.25593 -5.79997 
66 2 -4.12518 3.77176 -5.4227 
23 1 -5.9679 4.95082 -5.59842 
63 2 4.65804 4.30996 -5.35067 
75 2 -1.76034 6.41109 -5.83709 
90 2 1.33504 -1.5385 -4.81111 
52 2 -5.46981 1.74503 -4.90697 
32 1 6.51596 2.14165 -4.46737 
69 2 -3.08797 2.64005 -4.69674 
8 1 -5.6859 4.62651 -4.27626 
4 1 4.19935 5.26299 -4.78083 
61 2 4.76997 6.35295 -4.42186 
97 2 1.41906 -5.981 -3.87985 
12 1 2.40346 -4.88331 -3.52827 
30 1 -4.18436 -2.4886 -3.46026 
86 2 3.56313 -0.644935 -3.34775 
46 1 -0.543419 0.034506 -4.08097 
22 1 2.11938 2.97511 -3.71675 
81 2 -6.77681 4.04704 -3.99375 
19 1 3.99101 1.80673 -2.95908 
47 1 -1.15059 3.19636 -2.44806 
35 1 6.6051 5.52868 -2.73829 
6 1 -0.99294 6.59306 -2.72639 
21 1 1.19995 6.30738 -2.98983 
9 1 6.06561 -5.41835 -2.23787 
31 1 -3.40224 -4.18659 -2.2734 
79 2 1.46322 -4.05921 -1.70533 
56 2 5.17583 -1.74025 -1.95952 
42 1 0.147304 -6.40396 -0.73422 
39 1 -4.83331 -3.35205 -1.08187 
95 2 -3.0452 -1.98895 -0.834482 
29 1 -4.5935 -0.347952 -0.753682 
71 2 -3.18179 2.91339 -0.734138 
91 2 -4.80239 3.93649 -0.938823 
85 2 -5.72317 5.43401 -0.40183 
96 2 -4.28467 -6.78271 -1.21762 
43 1 6.2594 6.82675 -0.76497 
57 2 3.48133 -3.20718 0.285777 
37 1 1.914 -2.17644 -0.247263 
54 2 -1.49417 -0.659618 -0.058632 
58 2 -0.324497 -0.38432 -0.306427 
93 2 3.23467 0.0820066 0.255845 
15 1 0.165021 1.12243 0.407372 
13 1 1.32345 1.03213 0.390676 
51 2 4.30876 1.8436 -0.154414 
3 1 -0.81388 5.50152 -0.320594 
59 2 3.56715 6.21959 -0.484743 
89 2 -5.52761 -6.19864 0.982182 
16 1 -1.14655 -6.03978 0.827398 
92 2 -5.96851 -5.16977 0.536215 
82 2 0.878868 -5.5377 1.14885 
67 2 -5.57945 -3.70971 0.66343 
10 1 4.24236 -2.14884 1.05061 
27 1 -5.99385 2.77148 0.842293 
62 2 4.21198 6.08619 0.955201 
74 2 -4.09898 -5.00507 1.50661 
65 2 6.06519 -3.51714 1.38243 
76 2 3.22001 2.72032 1.75392 
80 2 -5.11041 3.83775 2.24889 
40 1 -3.83925 5.75502 1.95342 
84 2 -2.99021 -4.17436 2.33226 
20 1 -6.23261 -1.57605 2.79035 
2 1 5.99772 -0.499282 2.90122 
7 1 5.53875 6.4618 2.96972 
49 1 5.05738 -6.04167 3.68888 
100 2 -0.000809986 -5.28855 3.20986 
78 2 5.63519 -2.77868 3.80339 
94 2 -0.719078 6.0461 3.51669 
41 1 1.52082 -3.38954 4.73786 
99 2 -4.29949 -2.38298 4.99935 
36 1 1.124 1.78753 4.55673 
18 1 -5.70098 2.62918 4.68121 
28 1 -4.2543 5.09371 4.42232 
64 2 0.36791 5.05617 5.10339 
68 2 4.42627 -5.36594 5.39195 
55 2 -1.09943 -1.72495 5.03933 
77 2 -5.77207 -1.07607 5.73004 
53 2 -3.35328 -1.21783 5.45712 
88 2 -3.98884 6.15889 5.19892 
45 1 5.2737 -5.58078 6.39334 
70 2 -3.16738 -4.22176 6.47823 
98 2 -1.61618 -3.53125 6.56742 
11 1 0.853945 -3.98581 6.6244 
48 1 2.14856 -3.82867 6.474 
44 1 -5.08123 -2.85523 6.57157 
25 1 2.99387 -2.04071 6.28367 
26 1 5.28067 -1.45992 6.30067 
83 2 -5.41485 0.510826 6.29405 
60 2 4.55727 1.02134 6.47477 
87 2 3.71898 2.02351 6.46117 
ITEM: TIMESTEP
108000
ITEM: NUMBER OF ATOMS
100
ITEM: BOX BOUNDS pp pp pp
-6.83599 6.83599
-6.83599 6.83599
-6.83599 6.83599
ITEM: ATOMS id type x y z 
5 1 3.94431 -5.2951 -6.24294 
24 1 -0.291398 -4.1732 -6.52861 
1 1 6.16583 -2.54948 -5.94303 
72 2 2.08029 1.19982 -6.73255 
73 2 -2.86853 3.99452 -6.44406 
14 1 2.38997 -6.62882 -5.19913 
38 1 -2.8182 -5.28685 -5.78395 
17 1 -3.76714 -3.58756 -5.47098 
33 1 5.3355 1.05096 -5.48714 
50 1 3.31526 2.51755 -5.33305 
34 1 -5.96052 3.20477 -5.76678 
66 2 -4.21943 3.86753 -5.49697 
23 1 -5.91146 4.98461 -5.653 
63 2 4.59478 4.38402 -5.53552 
75 2 -1.72986 6.36442 -5.88992 
90 2 1.46537 -1.46975 -4.79576 
52 2 -5.56471 1.77623 -4.89883 
32 1 6.62082 2.18024 -4.47626 
69 2 -3.10421 2.68564 -4.64949 
8 1 -5.72351 4.62225 -4.3023 
4 1 4.23793 5.33929 -4.78688 
61 2 4.75317 6.35099 -4.54659 
97 2 1.43323 -5.998 -3.99181 
12 1 2.32161 -4.87081 -3.60418 
30 1 -4.12484 -2.52478 -3.46848 
86 2 3.61291 -0.540057 -3.33529 
46 1 -0.418206 0.0613442 -4.11292 
22 1 2.15345 3.00213 -3.68022 
81 2 6.82391 4.05789 -3.90191 
19 1 4.03925 1.84824 -3.0243 
47 1 -0.993926 3.00541 -2.43372 
35 1 6.6694 5.69375 -2.72497 
6 1 -1.07513 6.5924 -2.67013 
21 1 1.23521 6.20693 -2.96306 
9 1 6.09171 -5.47934 -2.22657 
31 1 -3.39501 -4.2347 -2.28351 
79 2 1.468 -4.09284 -1.75505 
56 2 5.19189 -1.67118 -2.03996 
96 2 -4.36183 -6.75969 -1.11385 
42 1 0.0203054 -6.35324 -0.666351 
39 1 -4.89797 -3.45968 -1.26017 
95 2 -3.1551 -2.02535 -0.734184 
29 1 -4.46012 -0.297349 -0.84846 
71 2 -3.25044 2.88128 -0.680367 
91 2 -4.65947 3.86645 -0.945585 
59 2 3.56437 6.24735 -0.623886 
43 1 6.26412 -6.79885 -0.76654 
57 2 3.53753 -3.21899 0.315613 
37 1 1.81052 -2.17668 -0.192193 
54 2 -1.53846 -0.66568 -0.0383747 
58 2 -0.40198 -0.336878 -0.366174 
93 2 3.26088 -0.0148334 0.245398 
15 1 0.0968746 1.07615 0.414988 
13 1 1.31578 1.14983 0.384963 
51 2 4.29744 1.81237 -0.114031 
85 2 -5.79318 5.51863 -0.31462 
3 1 -0.873308 5.39995 -0.370859 
89 2 -5.46426 -6.34167 0.960529 
16 1 -1.20446 -6.13107 0.827245 
92 2 -5.95185 -5.11158 0.587806 
82 2 0.779849 -5.60306 1.16305 
67 2 -5.57823 -3.55756 0.59383 
10 1 4.23108 -2.24287 1.09341 
27 1 -5.98398 2.79467 0.75674 
62 2 4.23992 6.05138 0.962962 
74 2 -4.21695 -4.9578 1.44864 
65 2 6.04884 -3.46745 1.35487 
76 2 3.23653 2.55843 1.65565 
80 2 -5.15582 3.84623 2.29436 
40 1 -3.81066 5.62861 1.92715 
84 2 -2.91038 -4.21748 2.16527 
20 1 -6.19409 -1.59009 2.85175 
2 1 6.0397 -0.429488 2.88636 
7 1 5.30995 6.46867 2.95466 
49 1 5.10516 -5.99585 3.5666 
100 2 0.0200382 -5.28471 3.15227 
78 2 5.62614 -2.76898 3.80674 
94 2 -0.733989 6.02805 3.51123 
41 1 1.72912 -3.40303 4.68596 
99 2 -4.30476 -2.52075 5.06033 
36 1 1.06404 1.89995 4.59377 
18 1 -5.67926 2.56952 4.66565 
28 1 -4.20373 4.98367 4.39157 
68 2 4.32149 -5.41655 5.34859 
55 2 -1.15194 -1.72958 4.93947 
77 2 -5.74406 -1.07482 5.84548 
53 2 -3.39856 -1.11572 5.37139 
64 2 0.369617 4.94915 5.32719 
88 2 -4.04982 6.15131 5.26226 
45 1 5.28928 -5.69658 6.35462 
70 2 -3.28147 -4.18857 6.53087 
98 2 -1.55702 -3.45038 6.56561 
11 1 0.84476 -3.93828 6.64154 
48 1 2.2397 -3.84833 6.49344 
44 1 -5.04864 -2.83986 6.5462 
25 1 3.05107 -1.94582 6.17374 
26 1 5.33134 -1.48612 6.25464 
83 2 -5.42108 0.532784 6.41815 
60 2 4.49087 1.01095 6.46502 
87 2 3.75694 2.14817 6.54639 
ITEM: TIMESTEP
109000
ITEM: NUMBER OF ATOMS
100
ITEM: BOX BOUNDS pp pp pp
-6.83599 6.83599
-6.83599 6.83599
-6.83599 6.83599
ITEM: ATOMS id type x y z 