ITEM: TIMESTEP
110000
ITEM: NUMBER OF ATOMS
100
ITEM: BOX BOUNDS pp pp pp
-6.83599 6.83599
-6.83599 6.83599
-6.83599 6.83599
ITEM: ATOMS id type x y z 
1 1 6.13025 -2.49485 -5.9528 
2 1 6.01665 -0.363562 2.74554 
3 1 -0.999947 5.24327 -0.46639 
4 1 4.34977 5.30142 -4.86397 
5 1 3.6981 -5.22616 -6.05854 
6 1 -1.22332 6.4222 -2.70155 
7 1 4.83511 6.53108 2.94178 
8 1 -5.82459 4.51783 -4.33008 
9 1 6.06459 -5.5536 -2.19887 
10 1 4.28886 -2.28043 1.14365 
11 1 0.845038 -3.96395 6.71278 
12 1 2.22951 -4.84064 -3.71673 
13 1 1.14394 1.32631 0.397157 
14 1 2.32012 -6.48863 -5.01575 
15 1 -0.0863029 1.03225 0.419516 
16 1 -1.21219 -6.35747 0.922153 
17 1 -3.64623 -3.2731 -5.17649 
18 1 -5.60168 2.5159 4.64138 
19 1 4.07714 1.80014 -3.11983 
20 1 -6.09056 -1.61862 3.04778 
21 1 1.30725 6.08828 -2.98183 
22 1 2.20868 3.03148 -3.61481 
23 1 -5.86836 5.03973 -5.65847 
24 1 -0.219422 -4.26465 -6.54148 
25 1 3.22777 -1.82921 5.93779 
26 1 5.49629 -1.39989 6.1374 
27 1 -5.92604 2.83553 0.615514 
28 1 -3.98961 4.7635 4.3556 
29 1 -4.12788 -0.281439 -1.14292 
30 1 -3.97784 -2.49068 -3.49779 
31 1 -3.44618 -4.32772 -2.26805 
32 1 6.79709 2.22536 -4.40948 
33 1 5.52333 1.10916 -5.52384 
34 1 -5.97204 3.11439 -5.75357 
35 1 -6.66594 5.9514 -2.86779 
36 1 1.06253 2.04215 4.69819 
37 1 1.66289 -2.24229 -0.0234824 
38 1 -2.80582 -5.0621 -5.78632 
39 1 -5.11307 -3.51798 -1.47518 
40 1 -3.72907 5.23525 1.86235 
41 1 2.15748 -3.36838 4.62102 
42 1 -0.28007 -6.19365 -0.575789 
43 1 6.32377 -6.65791 -0.710268 
44 1 -4.89918 -2.67714 6.49128 
45 1 5.391 -5.82217 6.2294 
46 1 -0.206156 0.0744623 -4.30137 
47 1 -0.782499 2.71129 -2.39456 
48 1 2.38384 -3.90752 6.46182 
49 1 5.2115 -5.9551 3.42987 
50 1 3.21743 2.56866 -5.55734 
51 2 4.29219 1.7599 0.0420792 
52 2 -5.72544 1.83392 -4.84065 
53 2 -3.56827 -0.884307 5.11472 
54 2 -1.56114 -0.632775 -0.0626377 
55 2 -1.18011 -1.66887 4.75215 
56 2 5.23549 -1.53011 -2.17883 
57 2 3.64348 -3.22653 0.349115 
58 2 -0.663288 -0.322284 -0.489158 
59 2 3.4737 6.26491 -0.82879 
60 2 4.3829 0.975915 6.39464 
61 2 4.71259 6.43102 -4.68579 
62 2 4.36067 5.95552 1.06497 
63 2 4.50127 4.43158 -5.75297 
64 2 0.466823 4.76971 5.7277 
65 2 5.98183 -3.41736 1.27061 
66 2 -4.53371 3.98697 -5.56142 
67 2 -5.52753 -3.34744 0.504252 
68 2 4.14277 -5.49271 5.25814 
69 2 -3.08224 2.71816 -4.58936 
70 2 -3.48996 -4.03176 6.6184 
71 2 -3.32048 2.82767 -0.586088 
72 2 2.18921 1.06078 -6.74196 
73 2 -2.94486 4.0951 -6.683 
74 2 -4.48038 -4.90033 1.27875 
75 2 -1.55479 6.16885 -6.00674 
76 2 3.31849 2.21542 1.53578 
77 2 -5.75818 -1.05338 5.97067 
78 2 5.63172 -2.83266 3.72009 
79 2 1.45943 -4.11243 -1.86228 
80 2 -5.19298 3.9337 2.40399 
81 2 6.76031 4.11633 -3.67422 
82 2 0.637367 -5.74207 1.25176 
83 2 -5.37694 0.575886 6.68725 
84 2 -2.81305 -4.31828 1.90847 
85 2 -5.92737 5.73814 -0.12978 
86 2 3.75524 -0.387924 -3.39386 
87 2 3.87848 2.35293 6.63696 
88 2 -4.16748 6.16547 5.28677 
89 2 -5.33533 -6.55321 0.96523 
90 2 1.67812 -1.36647 -4.86352 
91 2 -4.38514 3.75748 -1.00829 
92 2 -5.93997 -4.98053 0.69712 
93 2 3.32914 -0.223549 0.205875 
94 2 -0.617177 5.99938 3.49228 
95 2 -3.36951 -2.13726 -0.512893 
96 2 -4.49013 -6.60541 -0.920581 
97 2 1.58382 -6.11488 -4.24995 
98 2 -1.45283 -3.25101 6.66257 
99 2 -4.33231 -2.75833 5.13463 
100 2 0.0423131 -5.18583 3.02823 
