ITEM: TIMESTEP
112000
ITEM: NUMBER OF ATOMS
100
ITEM: BOX BOUNDS pp pp pp
-6.83599 6.83599
-6.83599 6.83599
-6.83599 6.83599
ITEM: ATOMS id type x y z 
1 1 6.21005 -2.40648 -5.93068 
2 1 6.0266 -0.378871 2.62822 
3 1 -1.17226 5.04571 -0.468297 
4 1 4.33041 5.26595 -4.96487 
5 1 3.51832 -5.145 -5.75896 
6 1 -1.38896 6.35813 -2.77691 
7 1 4.42266 6.79258 2.95371 
8 1 -5.95015 4.43404 -4.33144 
9 1 5.95815 -5.63562 -2.04511 
10 1 4.34248 -2.28573 1.12763 
11 1 0.80333 -4.04817 -6.73548 
12 1 2.17269 -4.75685 -3.82106 
13 1 0.996787 1.60593 0.411183 
14 1 2.47404 -6.41918 -5.13432 
15 1 -0.211865 1.0976 0.404464 
16 1 -1.1026 -6.56882 0.938383 
17 1 -3.55095 -3.04247 -4.8136 
18 1 -5.61527 2.42766 4.63641 
19 1 4.16336 1.69937 -3.21714 
20 1 -5.9358 -1.70085 3.29255 
21 1 1.50293 5.97497 -3.02664 
22 1 2.20499 3.04734 -3.53396 
23 1 -5.80438 5.03449 -5.64292 
24 1 -0.236646 -4.43908 -6.57061 
25 1 3.40476 -1.79668 5.78186 
26 1 5.56419 -1.26262 6.02578 
27 1 -5.87794 2.77202 0.491655 
28 1 -3.83683 4.70758 4.43202 
29 1 -3.73905 -0.339936 -1.39125 
30 1 -3.88523 -2.61967 -3.58837 
31 1 -3.64736 -4.34375 -2.25206 
32 1 -6.7717 2.23261 -4.3401 
33 1 5.81224 1.23642 -5.64348 
34 1 -5.87217 3.18141 -5.68406 
35 1 -6.32715 6.03984 -3.05516 
36 1 1.12943 2.04391 4.78428 
37 1 1.62566 -2.25525 0.103125 
38 1 -2.81965 -4.93315 -5.83256 
39 1 -5.34725 -3.6216 -1.61261 
40 1 -3.71324 4.81384 1.63277 
41 1 2.51828 -3.26775 4.42053 
42 1 -0.49055 -6.04529 -0.471997 
43 1 6.37778 -6.53509 -0.637946 
44 1 -4.78203 -2.46396 6.49276 
45 1 5.53651 -5.9341 6.10669 
46 1 -0.212561 0.0945609 -4.46276 
47 1 -0.622119 2.5056 -2.39216 
48 1 2.38613 -3.95512 6.46892 
49 1 5.30067 -5.975 3.30989 
50 1 3.099 2.61316 -5.77504 
51 2 4.29797 1.66098 0.156341 
52 2 -5.7986 1.82355 -4.78369 
53 2 -3.67528 -0.612722 4.89663 
54 2 -1.75799 -0.70136 0.0134382 
55 2 -1.17631 -1.64871 4.52267 
56 2 5.24194 -1.35504 -2.3061 
57 2 3.74566 -3.26339 0.161481 
58 2 -0.754428 -0.233684 -0.727873 
59 2 3.46814 6.26121 -0.90902 
60 2 4.34039 0.94092 6.33349 
61 2 4.65129 6.68594 -4.80382 
62 2 4.4994 5.85761 1.14747 
63 2 4.56966 4.51469 -5.90876 
64 2 0.654249 4.6932 6.11061 
65 2 5.92208 -3.48351 1.18567 
66 2 -4.92555 4.09235 -5.58229 
67 2 -5.53948 -3.13486 0.495347 
68 2 3.99553 -5.58884 5.2166 
69 2 -3.00543 2.64334 -4.56696 
70 2 -3.65183 -3.83158 6.76504 
71 2 -3.44601 2.77294 -0.624827 
72 2 2.30805 0.907882 -6.8122 
73 2 -3.01971 4.16343 6.74399 
74 2 -4.82345 -4.83451 1.10117 
75 2 -1.41438 5.95766 -6.10994 
76 2 3.3884 1.98546 1.30431 
77 2 -5.7389 -1.02954 6.04444 
78 2 5.61485 -2.86721 3.698 
79 2 1.41897 -4.10383 -1.99846 
80 2 -5.27138 4.13641 2.64629 
81 2 6.69833 4.21874 -3.52835 
82 2 0.5335 -5.86593 1.39188 
83 2 -5.29718 0.620306 -6.82415 
84 2 -2.76389 -4.31788 1.55717 
85 2 -6.11826 5.87889 0.111772 
86 2 3.88637 -0.323867 -3.45357 
87 2 3.99101 2.49641 6.69323 
88 2 -4.24458 6.27764 5.19075 
89 2 -5.25578 -6.72861 1.05837 
90 2 1.90041 -1.30063 -4.91787 
91 2 -4.09489 3.71054 -1.00376 
92 2 -5.96261 -4.93468 0.795111 
93 2 3.36831 -0.43823 0.0622546 
94 2 -0.419714 5.95448 3.55935 
95 2 -3.62525 -2.32651 -0.270304 
96 2 -4.64355 -6.45558 -0.763876 
97 2 1.56445 -5.99571 -4.31195 
98 2 -1.32429 -3.13286 6.72296 
99 2 -4.36857 -2.89942 5.17207 
100 2 0.0427374 -4.97555 2.95867 
