ITEM: TIMESTEP
115000
ITEM: NUMBER OF ATOMS
100
ITEM: BOX BOUNDS pp pp pp
-6.83599 6.83599
-6.83599 6.83599
-6.83599 6.83599
ITEM: ATOMS id type x y z 
1 1 6.09317 -2.3716 -5.7209 
2 1 6.09676 -0.285329 2.41332 
3 1 -1.27185 4.79868 -0.265812 
4 1 4.22088 5.27145 -5.06219 
5 1 3.24187 -4.99256 -5.32013 
6 1 -1.52139 6.38236 -2.88312 
7 1 3.96586 -6.51779 2.81809 
8 1 -6.08487 4.57809 -4.55969 
9 1 5.75601 -5.6851 -1.81321 
10 1 4.37038 -2.19108 1.1252 
11 1 0.884527 -4.05151 -6.41155 
12 1 2.03211 -4.79977 -3.86691 
13 1 0.83735 1.97021 0.34579 
14 1 2.68469 -6.10242 -5.34527 
15 1 -0.324911 1.08691 0.448718 
16 1 -0.907633 6.82504 0.824455 
17 1 -3.39925 -2.65056 -4.6405 
18 1 -5.62234 2.35336 4.69708 
19 1 4.2292 1.55453 -3.34632 
20 1 -5.77244 -1.71596 3.548 
21 1 1.83881 5.7935 -3.19358 
22 1 2.10205 3.1332 -3.5524 
23 1 -5.92763 5.20482 -5.86184 
24 1 -0.337825 -4.75486 -6.61824 
25 1 3.82304 -1.66936 5.61937 
26 1 5.60911 -1.15312 5.92145 
27 1 -5.8948 2.75873 0.249911 
28 1 -3.5906 4.70072 4.56853 
29 1 -3.26384 -0.556661 -1.62894 
30 1 -3.93152 -2.72084 -3.50454 
31 1 -3.93156 -4.27802 -2.13766 
32 1 -6.64205 2.44659 -4.35131 
33 1 6.27266 1.6057 -5.79745 
34 1 -5.85419 3.10317 -5.44678 
35 1 -5.84169 6.11453 -3.34877 
36 1 1.06428 2.01339 4.8246 
37 1 1.54398 -2.30004 0.290222 
38 1 -2.69595 -4.65263 -5.94327 
39 1 -5.54644 -3.59053 -1.76953 
40 1 -3.5536 4.34357 1.38487 
41 1 2.80071 -3.13216 4.08666 
42 1 -0.833354 -5.70764 -0.44339 
43 1 6.32053 -6.32981 -0.483266 
44 1 -4.55859 -2.2727 6.6509 
45 1 5.70658 -5.92997 6.06531 
46 1 -0.224668 0.21544 -4.72015 
47 1 -0.559212 2.58108 -2.33449 
48 1 2.43126 -3.8538 6.59994 
49 1 5.3782 -6.0464 3.04381 
50 1 2.84971 2.51383 -6.03945 
51 2 4.31007 1.69726 0.225635 
52 2 -5.86645 1.75929 -4.67636 
53 2 -3.62448 -0.360277 4.89404 
54 2 -2.00089 -0.637062 0.0478593 
55 2 -1.30554 -1.69349 4.23574 
56 2 5.25304 -1.04554 -2.47696 
57 2 3.94163 -3.2121 -0.110411 
58 2 -0.909617 -0.258824 -1.16262 
59 2 3.49726 6.3011 -0.92166 
60 2 4.30852 0.932011 6.43428 
61 2 4.48469 -6.69056 -5.0688 
62 2 4.6446 5.80419 1.26546 
63 2 4.52741 4.49316 -6.0623 
64 2 0.878282 4.39186 6.41087 
65 2 5.82392 -3.5901 0.990082 
66 2 -5.24987 4.19345 -5.49769 
67 2 -5.61302 -3.04105 0.523324 
68 2 3.83527 -5.72987 5.20345 
69 2 -2.81411 2.40752 -4.32053 
70 2 -3.91384 -3.55389 -6.80112 
71 2 -3.68436 2.50765 -0.802167 
72 2 2.65122 0.667453 6.74543 
73 2 -3.28669 4.04723 6.46176 
74 2 -5.05063 -4.57569 0.711033 
75 2 -1.18017 5.50917 -6.40671 
76 2 3.49913 1.7138 0.978043 
77 2 -5.59885 -0.891134 6.13837 
78 2 5.66302 -2.76991 3.52088 
79 2 1.27433 -3.98922 -2.06174 
80 2 -5.35505 4.54399 2.87865 
81 2 6.63565 4.2913 -3.23327 
82 2 0.548751 -5.91182 1.6791 
83 2 -5.17203 0.789516 -6.55431 
84 2 -2.54395 -4.22642 1.08751 
85 2 -6.3065 5.98906 0.495186 
86 2 4.11398 -0.087323 -3.59756 
87 2 4.22466 2.70178 6.74334 
88 2 -4.29224 6.47339 5.00086 
89 2 -5.13422 6.74209 1.36522 
90 2 2.19497 -1.30925 -5.00148 
91 2 -3.66072 3.64473 -0.989145 
92 2 -6.51905 -4.7153 1.20502 
93 2 3.37764 -0.719292 -0.0367097 
94 2 -0.0196074 5.8224 3.53944 
95 2 -3.95259 -2.58165 0.0423367 
96 2 -4.89876 -6.24718 -0.613412 
97 2 1.32889 -5.66213 -4.29547 
98 2 -1.21652 -3.03933 6.8389 
99 2 -4.38149 -3.08331 5.07 
100 2 0.235497 -4.63673 2.8887 
