ITEM: TIMESTEP
116000
ITEM: NUMBER OF ATOMS
100
ITEM: BOX BOUNDS pp pp pp
-6.83599 6.83599
-6.83599 6.83599
-6.83599 6.83599
ITEM: ATOMS id type x y z 
1 1 6.02029 -2.3496 -5.64042 
2 1 6.17738 -0.275135 2.35372 
3 1 -1.31362 4.66438 -0.199923 
4 1 4.19357 5.41963 -5.09077 
5 1 3.05534 -4.94166 -5.13931 
6 1 -1.50475 6.4609 -2.94352 
7 1 3.87205 -6.45826 2.81452 
8 1 -6.20257 4.67472 -4.61811 
9 1 5.65798 -5.69848 -1.7526 
10 1 4.39651 -2.20874 1.12047 
11 1 0.921673 -3.99601 -6.34816 
12 1 1.96766 -4.83329 -3.89388 
13 1 0.838677 2.03677 0.320313 
14 1 2.7361 -5.96042 -5.39612 
15 1 -0.31299 1.03112 0.442788 
16 1 -0.835257 6.75295 0.813517 
17 1 -3.3986 -2.55806 -4.68095 
18 1 -5.55513 2.36631 4.70927 
19 1 4.28519 1.53906 -3.38182 
20 1 -5.72993 -1.72909 3.60009 
21 1 1.95163 5.72948 -3.24053 
22 1 2.08525 3.19228 -3.57635 
23 1 -5.94734 5.33663 -5.96337 
24 1 -0.382367 -4.87575 -6.62861 
25 1 3.91639 -1.58662 5.5887 
26 1 5.63552 -1.1481 5.97132 
27 1 -5.89881 2.71685 0.212888 
28 1 -3.469 4.78391 4.55044 
29 1 -3.07445 -0.65042 -1.68308 
30 1 -3.94434 -2.7641 -3.4358 
31 1 -3.98863 -4.26972 -2.13107 
32 1 -6.61938 2.52173 -4.33186 
33 1 6.39876 1.69911 -5.78224 
34 1 -5.89561 3.06178 -5.42693 
35 1 -5.72036 6.13632 -3.43626 
36 1 0.972918 2.00719 4.82401 
37 1 1.48883 -2.32298 0.294185 
38 1 -2.61838 -4.59263 -6.01828 
39 1 -5.59761 -3.59331 -1.82437 
40 1 -3.51023 4.20725 1.38024 
41 1 2.85179 -3.03914 3.97476 
42 1 -0.936981 -5.58793 -0.455031 
43 1 6.28932 -6.25543 -0.410799 
44 1 -4.54115 -2.18914 6.6316 
45 1 5.77421 -5.92417 6.07206 
46 1 -0.233056 0.288562 -4.79789 
47 1 -0.557409 2.56646 -2.31723 
48 1 2.44149 -3.7825 6.54852 
49 1 5.40598 -6.04345 2.94388 
50 1 2.85418 2.51239 -6.13344 
51 2 4.35103 1.72597 0.184293 
52 2 -5.83878 1.71405 -4.60865 
53 2 -3.60604 -0.292442 4.9537 
54 2 -2.03629 -0.563476 0.0362454 
55 2 -1.31154 -1.71329 4.14827 
56 2 5.28947 -1.00664 -2.53837 
57 2 3.99323 -3.18629 -0.197593 
58 2 -0.97301 -0.353795 -1.27858 
59 2 3.49193 6.29823 -0.844337 
60 2 4.30974 0.90728 6.44533 
61 2 4.39433 -6.63631 -5.1244 
62 2 4.64329 5.80383 1.32696 
63 2 4.52926 4.45123 -6.03903 
64 2 0.985483 4.32172 6.4963 
65 2 5.76014 -3.64817 0.909053 
66 2 -5.28088 4.23196 -5.47601 
67 2 -5.68754 -2.98751 0.531287 
68 2 3.81814 -5.73666 5.20105 
69 2 -2.71483 2.33439 -4.25068 
70 2 -3.94414 -3.50772 -6.80831 
71 2 -3.75635 2.44318 -0.851371 
72 2 2.73177 0.599092 6.72174 
73 2 -3.41462 4.03121 6.41897 
74 2 -5.03972 -4.49556 0.566526 
75 2 -1.0603 5.32797 -6.59023 
76 2 3.43978 1.63071 0.966277 
77 2 -5.56656 -0.835566 6.14163 
78 2 5.56114 -2.74138 3.43179 
79 2 1.25345 -3.99022 -2.06829 
80 2 -5.3617 4.64366 2.93082 
81 2 6.60026 4.24094 -3.15768 
82 2 0.547172 -5.95366 1.7676 
83 2 -5.17861 0.833806 -6.46594 
84 2 -2.48609 -4.21807 0.972222 
85 2 -6.38274 5.99869 0.60428 
86 2 4.15588 -0.0547475 -3.62797 
87 2 4.27738 2.72317 6.78867 
88 2 -4.29273 6.54989 4.9403 
89 2 -5.08862 6.67827 1.45041 
90 2 2.29127 -1.31737 -5.03311 
91 2 -3.56935 3.60581 -1.00892 
92 2 -6.71318 -4.62879 1.35789 
93 2 3.39453 -0.770532 -0.0884832 
94 2 0.0751897 5.7947 3.51422 
95 2 -4.06873 -2.65869 0.128128 
96 2 -4.98353 -6.20819 -0.623832 
97 2 1.28095 -5.55514 -4.27495 
98 2 -1.2152 -3.06123 -6.69482 
99 2 -4.37335 -3.14832 5.03924 
100 2 0.285055 -4.54281 2.85624 
