ITEM: TIMESTEP
118000
ITEM: NUMBER OF ATOMS
100
ITEM: BOX BOUNDS pp pp pp
-6.83599 6.83599
-6.83599 6.83599
-6.83599 6.83599
ITEM: ATOMS id type x y z 
1 1 5.82492 -2.38164 -5.49852 
2 1 6.19087 -0.210602 2.19049 
3 1 -1.40747 4.42309 -0.115437 
4 1 4.11658 5.67974 -5.08178 
5 1 2.95761 -4.84405 -4.73343 
6 1 -1.38685 6.6111 -3.10461 
7 1 3.72189 -6.34231 2.7772 
8 1 -6.48286 4.8067 -4.7053 
9 1 5.51585 -5.82833 -1.67461 
10 1 4.54535 -2.20636 1.22451 
11 1 1.02946 -3.85196 -6.26543 
12 1 1.99475 -4.84191 -3.9027 
13 1 0.746351 2.09618 0.300821 
14 1 2.7881 -5.74116 -5.48079 
15 1 -0.354735 0.881575 0.489259 
16 1 -0.671309 6.68085 0.786926 
17 1 -3.35445 -2.41547 -4.72997 
18 1 -5.43888 2.35133 4.70062 
19 1 4.37416 1.45206 -3.37165 
20 1 -5.70663 -1.8192 3.62599 
21 1 2.12464 5.68042 -3.31544 
22 1 2.02228 3.30684 -3.82954 
23 1 -6.0051 5.5706 -6.0454 
24 1 -0.50114 -5.08133 -6.61423 
25 1 4.01844 -1.42147 5.52632 
26 1 5.66575 -1.10212 6.01244 
27 1 -6.02274 2.75737 0.121141 
28 1 -3.43305 4.9684 4.53003 
29 1 -2.6608 -0.768544 -1.82202 
30 1 -3.93349 -2.82299 -3.39572 
31 1 -4.00572 -4.33891 -1.97428 
32 1 -6.5862 2.64167 -4.41706 
33 1 6.582 1.83303 -5.85826 
34 1 -5.79324 2.92307 -5.43422 
35 1 -5.60031 6.21488 -3.63695 
36 1 0.905402 2.06588 4.85196 
37 1 1.38939 -2.31536 0.262426 
38 1 -2.49879 -4.51718 -6.1899 
39 1 -5.7731 -3.58519 -1.83877 
40 1 -3.41347 3.95004 1.34559 
41 1 3.00059 -2.78853 3.67137 
42 1 -1.02753 -5.27731 -0.473954 
43 1 6.2579 -6.07012 -0.320483 
44 1 -4.39471 -2.16696 6.61419 
45 1 5.84712 -5.88367 6.1038 
46 1 -0.287168 0.418795 -4.85898 
47 1 -0.641988 2.58717 -2.21914 
48 1 2.45275 -3.72991 6.38142 
49 1 5.43841 -6.15273 2.77363 
50 1 2.87837 2.55247 -6.31964 
51 2 4.47794 1.7687 0.13206 
52 2 -5.86896 1.69045 -4.53759 
53 2 -3.48963 -0.125343 5.14407 
54 2 -2.13746 -0.423143 0.102539 
55 2 -1.26622 -1.7206 3.9773 
56 2 5.39436 -0.938838 -2.68414 
57 2 4.06066 -3.15206 -0.363557 
58 2 -1.01939 -0.56075 -1.46903 
59 2 3.49666 6.26083 -0.57555 
60 2 4.28497 0.990721 6.41182 
61 2 4.24438 -6.50596 -5.17678 
62 2 4.54501 5.80621 1.40947 
63 2 4.61636 4.41217 -6.01245 
64 2 1.28003 4.15752 6.70329 
65 2 5.65354 -3.76015 0.782323 
66 2 -5.41913 4.30101 -5.49543 
67 2 -5.84529 -2.88491 0.541972 
68 2 3.77901 -5.75741 5.16598 
69 2 -2.51986 2.2475 -4.13275 
70 2 -4.07704 -3.44189 -6.80924 
71 2 -3.85447 2.34447 -0.982187 
72 2 2.69932 0.524025 6.74586 
73 2 -3.7037 3.97286 6.41426 
74 2 -4.9983 -4.29756 0.287806 
75 2 -0.891987 5.09764 6.81923 
76 2 3.36163 1.55501 0.877412 
77 2 -5.56673 -0.747663 6.09138 
78 2 5.42969 -2.74003 3.33923 
79 2 1.1296 -4.0384 -2.03469 
80 2 -5.40264 4.72233 3.11439 
81 2 6.64011 4.18275 -3.11131 
82 2 0.443811 -6.07 1.90662 
83 2 -5.17207 0.922589 -6.34676 
84 2 -2.43029 -4.23414 0.739664 
85 2 -6.60471 6.01133 0.761236 
86 2 4.28189 0.0388851 -3.70999 
87 2 4.28868 2.80678 -6.7665 
88 2 -4.30905 6.67211 4.82347 
89 2 -5.02045 6.60129 1.58627 
90 2 2.43291 -1.37608 -5.13587 
91 2 -3.51409 3.47326 -1.03343 
92 2 6.67763 -4.35357 1.6102 
93 2 3.47586 -0.896145 -0.156947 
94 2 0.230699 5.73658 3.41684 
95 2 -4.22481 -2.725 0.352709 
96 2 -5.15265 -6.13442 -0.674035 
97 2 1.08046 -5.46356 -4.2515 
98 2 -1.28716 -3.12719 -6.38981 
99 2 -4.28859 -3.41522 4.89968 
100 2 0.378297 -4.36157 2.81618 
