ITEM: TIMESTEP
119000
ITEM: NUMBER OF ATOMS
100
ITEM: BOX BOUNDS pp pp pp
-6.83599 6.83599
-6.83599 6.83599
-6.83599 6.83599
ITEM: ATOMS id type x y z 
1 1 5.76225 -2.41651 -5.47923 
2 1 6.19649 -0.221743 2.1507 
3 1 -1.41312 4.3398 -0.130581 
4 1 4.05008 5.72229 -5.04259 
5 1 2.94968 -4.75256 -4.54257 
6 1 -1.35491 6.69862 -3.16019 
7 1 3.64443 -6.26068 2.73784 
8 1 -6.5675 4.86129 -4.80219 
9 1 5.46406 -5.87216 -1.66332 
10 1 4.61349 -2.21845 1.28833 
11 1 1.16098 -3.7843 -6.2576 
12 1 1.96147 -4.7512 -3.89472 
13 1 0.736585 2.0828 0.267327 
14 1 2.85472 -5.66769 -5.54186 
15 1 -0.399421 0.843139 0.500598 
16 1 -0.597805 6.64918 0.776482 
17 1 -3.30127 -2.37653 -4.74299 
18 1 -5.36064 2.30951 4.72545 
19 1 4.38427 1.43798 -3.36661 
20 1 -5.75088 -1.84783 3.65128 
21 1 2.1597 5.66708 -3.36067 
22 1 1.9925 3.42861 -3.9849 
23 1 -6.12124 5.74346 -6.0889 
24 1 -0.522754 -5.15793 -6.53773 
25 1 4.07726 -1.34532 5.50247 
26 1 5.64651 -1.07048 6.02336 
27 1 -6.06276 2.75235 0.0611246 
28 1 -3.39249 5.02805 4.50317 
29 1 -2.46561 -0.84114 -1.89977 
30 1 -3.95786 -2.86819 -3.39202 
31 1 -4.00947 -4.33353 -1.87116 
32 1 -6.56705 2.68761 -4.47662 
33 1 6.66152 1.92525 -5.91162 
34 1 -5.72486 2.84319 -5.42129 
35 1 -5.52485 6.26176 -3.71775 
36 1 0.894632 2.035 4.90994 
37 1 1.35168 -2.21627 0.264343 
38 1 -2.43399 -4.4445 -6.25595 
39 1 -5.89097 -3.60233 -1.85458 
40 1 -3.30804 3.81946 1.37684 
41 1 3.05777 -2.6633 3.463 
42 1 -1.03573 -5.1631 -0.543142 
43 1 6.26144 -5.91519 -0.270024 
44 1 -4.40864 -2.12578 6.63118 
45 1 5.82524 -5.87548 6.11036 
46 1 -0.348598 0.510541 -4.87696 
47 1 -0.646845 2.56449 -2.16228 
48 1 2.47805 -3.67612 6.27182 
49 1 5.46772 -6.21303 2.68392 
50 1 2.86664 2.58173 -6.40774 
51 2 4.56066 1.76383 0.0848558 
52 2 -5.91507 1.70839 -4.5514 
53 2 -3.37309 -0.0580038 5.24826 
54 2 -2.14937 -0.371471 0.218172 
55 2 -1.2558 -1.69964 3.93566 
56 2 5.44275 -0.874449 -2.76652 
57 2 4.01715 -3.14297 -0.404256 
58 2 -1.03332 -0.626382 -1.50956 
59 2 3.50923 6.24787 -0.44206 
60 2 4.22764 1.01512 6.42517 
61 2 4.18932 -6.41172 -5.13631 
62 2 4.49658 5.77757 1.43789 
63 2 4.65979 4.3969 -6.0139 
64 2 1.45751 4.09281 6.81577 
65 2 5.64935 -3.81298 0.754787 
66 2 -5.48012 4.32119 -5.49234 
67 2 -5.91529 -2.81974 0.574458 
68 2 3.75452 -5.75771 5.1425 
69 2 -2.40113 2.22057 -4.02885 
70 2 -4.13933 -3.39618 -6.82838 
71 2 -3.87512 2.31753 -1.04854 
72 2 2.67898 0.51738 6.73258 
73 2 -3.84922 3.96418 6.41106 
74 2 -4.98818 -4.17994 0.190934 
75 2 -0.887264 4.99778 6.72738 
76 2 3.37043 1.53308 0.829053 
77 2 -5.57633 -0.712426 6.01251 
78 2 5.36757 -2.73834 3.3281 
79 2 1.06184 -4.05312 -2.00261 
80 2 -5.44052 4.77676 3.23999 
81 2 6.68969 4.21199 -3.08894 
82 2 0.410228 -6.14412 1.91991 
83 2 -5.18344 0.950056 -6.31322 
84 2 -2.39011 -4.25137 0.598466 
85 2 -6.70963 6.04377 0.849253 
86 2 4.38554 0.0879967 -3.71053 
87 2 4.31995 2.8331 -6.72036 
88 2 -4.33131 6.68775 4.77917 
89 2 -5.00624 6.61234 1.66489 
90 2 2.48445 -1.38918 -5.1575 
91 2 -3.48655 3.40634 -1.01113 
92 2 6.57749 -4.22366 1.72553 
93 2 3.48469 -0.933549 -0.185693 
94 2 0.302654 5.66874 3.35266 
95 2 -4.27664 -2.77082 0.454819 
96 2 -5.26824 -6.0722 -0.644324 
97 2 0.959788 -5.43695 -4.21482 
98 2 -1.32337 -3.15197 -6.23469 
99 2 -4.24926 -3.59563 4.81264 
100 2 0.412645 -4.29518 2.80292 
