ITEM: TIMESTEP
102000
ITEM: NUMBER OF ATOMS
100
ITEM: BOX BOUNDS pp pp pp
-6.83599 6.83599
-6.83599 6.83599
-6.83599 6.83599
ITEM: ATOMS id type x y z 
1 1 6.02039 -2.51302 -6.01454 
2 1 6.05598 -0.629717 2.8014 
3 1 -0.652528 6.01541 -0.280008 
4 1 4.21005 5.21252 -4.73081 
5 1 4.24992 -5.55286 -6.38644 
6 1 -0.305203 6.70062 -2.93538 
7 1 6.41128 6.34122 2.77908 
8 1 -5.19211 4.53672 -3.9206 
9 1 6.31181 -5.43132 -2.1698 
10 1 4.64733 -2.19594 1.01359 
11 1 0.613577 -4.20947 6.74796 
12 1 2.76761 -4.7913 -3.12796 
13 1 1.65131 0.401837 0.286535 
14 1 2.77737 -6.57051 -5.42896 
15 1 0.560663 1.45555 0.195625 
16 1 -0.827299 -5.58884 0.649874 
17 1 -3.55185 -4.24509 -5.81868 
18 1 -5.84622 3.00687 4.80647 
19 1 3.66621 1.54726 -2.67842 
20 1 -6.75386 -1.37893 2.70916 
21 1 1.03997 6.65968 -3.11809 
22 1 2.14768 3.03649 -3.56139 
23 1 -6.41335 4.89246 -5.53177 
24 1 -0.383458 -4.02505 -6.61657 
25 1 2.73156 -2.28137 6.65419 
26 1 4.93941 -1.40693 6.28992 
27 1 -5.95885 2.37392 1.66688 
28 1 -4.60148 5.45113 4.4621 
29 1 -5.57157 -0.648414 -0.304294 
30 1 -4.43299 -2.32482 -3.61444 
31 1 -3.31016 -3.82657 -2.03534 
32 1 6.36379 1.93175 -4.55794 
33 1 4.61729 0.804779 -5.32477 
34 1 -5.80981 3.39372 -5.77304 
35 1 6.41031 4.77404 -2.65693 
36 1 1.27167 1.1225 4.42255 
37 1 2.56975 -2.15438 -0.315458 
38 1 -2.96886 -5.49545 -6.32836 
39 1 -5.08355 -3.49917 -0.155364 
40 1 -4.2332 5.95542 2.03067 
41 1 0.515623 -3.20555 5.02037 
42 1 0.877269 -6.7363 -0.797431 
43 1 6.12542 6.65751 -0.394955 
44 1 -5.33216 -3.16986 6.64931 
45 1 5.55594 -5.17107 6.40092 
46 1 -0.895031 0.0230029 -3.95393 
47 1 -1.69425 4.09686 -2.65153 
48 1 2.09214 -3.54939 6.51911 
49 1 4.67296 -6.19108 4.19669 
50 1 3.4569 2.41166 -4.65603 
51 2 4.54316 1.89142 -0.159976 
52 2 -5.28819 1.75839 -4.66234 
53 2 -3.30684 -1.37003 5.87193 
54 2 -1.39695 -0.680156 -0.048543 
55 2 -0.7397 -1.63329 5.712 
56 2 5.16751 -1.96043 -1.83682 
57 2 3.3471 -3.12162 0.248242 
58 2 -0.0701023 -0.49883 0.0382298 
59 2 3.60149 6.26233 -0.173864 
60 2 4.83933 0.948732 6.49468 
61 2 5.14986 6.31521 -4.03297 
62 2 4.36681 6.08932 0.848975 
63 2 4.97639 3.96032 -4.64017 
64 2 0.18503 5.43544 4.11138 
65 2 6.137 -3.79227 1.71687 
66 2 -3.66116 3.34373 -4.95296 
67 2 -5.35155 -4.30579 0.729124 
68 2 4.7643 -4.80808 5.44246 
69 2 -2.89928 2.50735 -4.96815 
70 2 -2.60814 -4.23243 6.15774 
71 2 -2.75259 3.22677 -1.06519 
72 2 2.07793 1.38874 6.68649 
73 2 -2.78702 3.62053 -5.90214 
74 2 -3.74338 -5.29652 1.87101 
75 2 -1.82782 -6.77007 -5.75624 
76 2 3.42051 3.49403 1.83225 
77 2 -6.10978 -0.963079 4.99909 
78 2 5.49046 -2.88332 3.87206 
79 2 1.31546 -3.70802 -1.54892 
80 2 -5.03419 3.76891 2.05337 
81 2 -6.73733 4.15288 -4.23851 
82 2 0.996901 -5.26675 0.826411 
83 2 -5.10742 0.173764 5.75812 
84 2 -3.13395 -3.7145 3.16706 
85 2 -5.63039 4.8676 -0.496284 
86 2 3.33203 -1.0098 -3.25471 
87 2 3.76591 1.68028 6.38355 
88 2 -3.67777 6.10072 4.8043 
89 2 -5.642 -5.73741 1.25517 
90 2 0.664251 -1.54719 -4.77751 
91 2 -5.33161 3.75382 -0.920922 
92 2 -6.20575 -5.1867 0.111539 
93 2 3.21546 0.40138 0.184329 
94 2 -0.755321 6.08163 3.81852 
95 2 -2.78938 -1.49046 -1.37518 
96 2 -4.21009 6.50876 -1.56069 
97 2 1.47179 -6.09887 -3.37447 
98 2 -1.53164 -4.02615 6.46459 
99 2 -4.32849 -1.8384 4.58888 
100 2 0.257645 -5.43109 3.16455 
