ITEM: TIMESTEP
123000
ITEM: NUMBER OF ATOMS
100
ITEM: BOX BOUNDS pp pp pp
-6.83599 6.83599
-6.83599 6.83599
-6.83599 6.83599
ITEM: ATOMS id type x y z 
1 1 5.75476 -2.80272 -5.32614 
2 1 6.23348 -0.262899 1.91106 
3 1 -1.52637 3.92138 -0.407249 
4 1 3.91825 6.03398 -4.97228 
5 1 2.87662 -4.45155 -4.15861 
6 1 -1.38125 -6.65157 -3.29421 
7 1 3.22267 -5.85554 2.53903 
8 1 6.80002 5.06764 -5.16749 
9 1 5.47238 -5.86772 -1.39331 
10 1 4.73184 -2.31228 1.6613 
11 1 1.36905 -3.48591 -6.29834 
12 1 1.79579 -4.49957 -3.82448 
13 1 0.668868 1.67783 -0.175605 
14 1 3.1032 -5.51782 -5.49231 
15 1 -0.430554 0.742558 0.264641 
16 1 -0.218302 6.61849 0.739296 
17 1 -3.1629 -2.07545 -4.78611 
18 1 -5.17167 2.24524 4.65716 
19 1 4.32958 1.50081 -3.4615 
20 1 -5.77486 -2.31062 3.73889 
21 1 2.51677 5.56422 -3.62339 
22 1 1.93435 3.76464 -4.64764 
23 1 -6.54529 6.23189 -6.23025 
24 1 -0.145142 -5.29363 -6.35617 
25 1 4.14911 -1.26755 5.39407 
26 1 5.79808 -1.07717 5.8938 
27 1 -6.34942 2.77439 -0.161007 
28 1 -3.2871 5.17868 4.34969 
29 1 -1.81929 -1.07685 -2.31478 
30 1 -4.04752 -2.80509 -3.19424 
31 1 -3.94396 -4.34583 -1.35013 
32 1 -6.38136 2.92549 -4.53743 
33 1 -6.52093 1.99824 -6.10323 
34 1 -5.56607 2.59201 -5.17828 
35 1 -5.24798 6.46346 -4.19455 
36 1 0.985392 1.93224 5.52635 
37 1 1.37326 -1.71876 0.360777 
38 1 -2.18461 -4.30163 -6.36847 
39 1 -6.1476 -3.8332 -1.93524 
40 1 -3.05685 3.49108 1.20683 
41 1 3.27863 -2.16944 2.71467 
42 1 -0.999768 -4.89645 -0.826421 
43 1 6.42846 -5.32135 -0.0478532 
44 1 -4.0992 -1.96143 6.57788 
45 1 5.78968 -5.79956 6.11401 
46 1 -0.550375 0.661334 -4.7781 
47 1 -0.795524 2.40978 -2.01878 
48 1 2.46705 -3.38456 5.83054 
49 1 5.89184 -6.2779 2.45276 
50 1 2.79505 2.64541 -6.56415 
51 2 4.82698 1.77556 -0.063932 
52 2 -6.0879 1.79798 -4.49312 
53 2 -3.03096 0.166281 5.55278 
54 2 -2.36132 -0.525621 0.648166 
55 2 -1.38126 -1.66758 4.10947 
56 2 5.58535 -0.453279 -3.0931 
57 2 3.80206 -3.26181 -0.596733 
58 2 -0.885558 -0.968259 -1.66085 
59 2 3.39974 6.00472 0.0369773 
60 2 3.99729 0.916543 6.32675 
61 2 4.09155 -6.019 -4.98584 
62 2 4.51608 5.50009 1.68579 
63 2 4.85276 4.4001 -6.04435 
64 2 2.22207 3.87658 -6.56032 
65 2 5.64244 -3.98663 0.638006 
66 2 -5.91711 4.17015 -5.30053 
67 2 -6.31494 -2.47268 0.749261 
68 2 3.70728 -5.88372 5.3096 
69 2 -1.88081 2.04662 -3.55319 
70 2 -4.37784 -3.17484 -6.79573 
71 2 -4.16632 1.99984 -1.32453 
72 2 2.8118 0.506921 6.76925 
73 2 -4.3536 4.04538 6.53805 
74 2 -5.19371 -3.7993 -0.283375 
75 2 -0.822668 4.62895 6.36598 
76 2 3.37451 1.33353 0.621191 
77 2 -5.37495 -0.556419 5.77789 
78 2 5.01403 -2.56762 3.09741 
79 2 0.697366 -4.2447 -1.96689 
80 2 -5.63178 4.85786 3.49001 
81 2 6.67634 4.24012 -2.96582 
82 2 0.330586 -6.11744 2.17421 
83 2 -5.34064 0.747589 -6.08829 
84 2 -2.34044 -4.35893 0.115692 
85 2 6.77512 6.12147 0.928899 
86 2 4.75334 -0.052697 -3.67823 
87 2 4.43496 3.00368 -6.6852 
88 2 -4.26069 6.73161 4.49953 
89 2 -4.95712 6.56719 2.09465 
90 2 2.54468 -1.41706 -5.3561 
91 2 -3.63049 3.35379 -0.912568 
92 2 6.10482 -3.71885 2.02576 
93 2 3.68303 -1.13407 -0.310977 
94 2 0.547666 5.3811 3.18628 
95 2 -4.45147 -3.04154 0.569814 
96 2 -5.72197 -5.73811 -0.315624 
97 2 0.510687 -5.28198 -3.95936 
98 2 -1.20614 -3.26925 -5.75507 
99 2 -4.29058 -4.29793 4.44491 
100 2 0.692313 -4.08089 2.75582 
