ITEM: TIMESTEP
125000
ITEM: NUMBER OF ATOMS
100
ITEM: BOX BOUNDS pp pp pp
-6.83599 6.83599
-6.83599 6.83599
-6.83599 6.83599
ITEM: ATOMS id type x y z 
1 1 5.76465 -2.98296 -5.26741 
2 1 6.00643 -0.243089 1.91597 
3 1 -1.50867 3.80796 -0.509714 
4 1 3.87558 6.1054 -4.99282 
5 1 2.83485 -4.26499 -4.1957 
6 1 -1.41738 -6.4405 -3.24308 
7 1 2.87395 -5.61797 2.43947 
8 1 6.65802 5.19581 -5.39852 
9 1 5.66991 -5.79587 -1.25238 
10 1 4.75609 -2.36723 1.88964 
11 1 1.3461 -3.38586 -6.32563 
12 1 1.5822 -4.43553 -3.67346 
13 1 0.779735 1.44137 -0.369028 
14 1 3.13932 -5.4963 -5.38151 
15 1 -0.432666 0.799496 0.0689481 
16 1 -0.0144151 6.48889 0.627752 
17 1 -3.13019 -2.02166 -4.78369 
18 1 -5.13423 2.07791 4.53457 
19 1 4.19943 1.62463 -3.43396 
20 1 -5.71027 -2.65577 3.79806 
21 1 2.72552 5.58567 -3.80213 
22 1 1.77672 3.78233 -4.93265 
23 1 -6.78914 6.36302 -6.28653 
24 1 0.0910511 -5.21595 -6.47231 
25 1 4.23801 -1.27432 5.27078 
26 1 5.95141 -1.06198 5.92382 
27 1 -6.52432 2.87719 -0.237146 
28 1 -3.23976 5.11225 4.24653 
29 1 -1.8251 -1.21448 -2.53892 
30 1 -4.08461 -2.64019 -3.15741 
31 1 -3.90332 -4.28262 -1.06231 
32 1 -6.35412 2.96711 -4.5962 
33 1 -6.29854 2.01931 -6.31043 
34 1 -5.47752 2.58231 -5.13812 
35 1 -5.2074 6.48729 -4.43393 
36 1 0.974906 2.02879 5.84587 
37 1 1.28934 -1.50327 0.387346 
38 1 -2.14647 -4.16175 -6.4126 
39 1 -6.26529 -3.88871 -1.87624 
40 1 -3.20854 3.36102 1.18274 
41 1 3.45153 -2.20069 2.38703 
42 1 -0.86513 -4.84699 -0.992528 
43 1 6.55592 -5.05886 0.0815552 
44 1 -3.86762 -1.93751 6.52929 
45 1 5.82019 -5.69072 6.12146 
46 1 -0.79553 0.645633 -4.79147 
47 1 -0.743265 2.22672 -1.9063 
48 1 2.36507 -3.19135 5.64521 
49 1 6.16765 -6.21819 2.32176 
50 1 2.74056 2.67429 -6.73786 
51 2 4.96313 1.71691 -0.130063 
52 2 -6.1948 1.93055 -4.32016 
53 2 -2.91499 0.305513 5.71451 
54 2 -2.43862 -0.663635 0.835354 
55 2 -1.37377 -1.72767 4.25568 
56 2 5.86298 -0.340055 -3.14299 
57 2 3.60716 -3.44451 -0.721763 
58 2 -0.705835 -1.24967 -1.7291 
59 2 3.34138 5.97562 0.203001 
60 2 4.03163 0.868422 6.28039 
61 2 4.01498 -5.86107 -4.93582 
62 2 4.60737 5.33881 1.91074 
63 2 4.92089 4.58585 -6.08405 
64 2 2.6865 3.76643 -6.5468 
65 2 5.64444 -4.0941 0.639726 
66 2 -6.11542 4.05296 -5.21784 
67 2 -6.46799 -2.30236 0.948086 
68 2 3.702 -5.87315 5.35534 
69 2 -1.63113 2.01225 -3.44331 
70 2 -4.54164 -3.1641 -6.81852 
71 2 -4.28389 1.93222 -1.67733 
72 2 2.86928 0.360242 -6.79155 
73 2 -4.63362 4.07611 6.52976 
74 2 -5.20329 -3.6821 -0.521324 
75 2 -0.788864 4.34721 6.22263 
76 2 3.39016 1.18391 0.47461 
77 2 -5.20952 -0.441451 5.61528 
78 2 4.87878 -2.39682 2.95577 
79 2 0.474414 -4.20719 -1.91053 
80 2 -5.84824 4.96145 3.62732 
81 2 6.69064 4.29054 -3.00301 
82 2 0.210944 -5.99455 2.39057 
83 2 -5.48228 0.701148 -6.00867 
84 2 -2.41289 -4.39041 -0.096954 
85 2 6.74884 6.16733 0.888521 
86 2 4.73406 -0.0373121 -3.73137 
87 2 4.59466 3.0749 -6.75372 
88 2 -4.20026 -6.83465 4.37654 
89 2 -5.03298 6.55994 2.21789 
90 2 2.43348 -1.38888 -5.4975 
91 2 -3.54706 3.30039 -0.819537 
92 2 5.8552 -3.58918 2.26576 
93 2 3.7649 -1.20622 -0.361812 
94 2 0.666431 5.35963 3.15741 
95 2 -4.49895 -3.18177 0.668554 
96 2 -5.91484 -5.53308 -0.164458 
97 2 0.232154 -5.14862 -3.7853 
98 2 -1.03152 -3.32497 -5.56545 
99 2 -4.30166 -4.61373 4.21318 
100 2 0.908221 -3.94468 2.74269 
