ITEM: TIMESTEP
126000
ITEM: NUMBER OF ATOMS
100
ITEM: BOX BOUNDS pp pp pp
-6.83599 6.83599
-6.83599 6.83599
-6.83599 6.83599
ITEM: ATOMS id type x y z 
1 1 5.75921 -3.08234 -5.21479 
2 1 5.97327 -0.312038 1.97083 
3 1 -1.48648 3.74288 -0.585253 
4 1 3.85265 6.13903 -5.04669 
5 1 2.79374 -4.19307 -4.18221 
6 1 -1.46249 -6.33207 -3.2386 
7 1 2.69993 -5.51121 2.41715 
8 1 6.51801 5.26179 -5.46938 
9 1 5.76866 -5.78835 -1.15755 
10 1 4.76272 -2.38306 1.82558 
11 1 1.31694 -3.35379 -6.33951 
12 1 1.53636 -4.41051 -3.59821 
13 1 0.825529 1.30535 -0.53659 
14 1 3.11069 -5.45994 -5.36462 
15 1 -0.429316 0.827035 0.00133419 
16 1 0.0320512 6.45378 0.524346 
17 1 -3.16653 -2.0207 -4.78857 
18 1 -5.05897 1.91847 4.45066 
19 1 4.13394 1.65957 -3.39423 
20 1 -5.63476 -2.80895 3.78159 
21 1 2.82416 5.63543 -3.93022 
22 1 1.76767 3.77709 -5.06115 
23 1 6.7641 6.3835 -6.31178 
24 1 0.191134 -5.17744 -6.56887 
25 1 4.28892 -1.20604 5.17583 
26 1 6.01657 -1.04911 5.93836 
27 1 -6.60213 2.94735 -0.285807 
28 1 -3.21384 5.09109 4.23181 
29 1 -1.8351 -1.27496 -2.62432 
30 1 -4.0711 -2.56473 -3.11051 
31 1 -3.89072 -4.21878 -0.976614 
32 1 -6.33669 3.00248 -4.63103 
33 1 -6.19516 2.01017 -6.34982 
34 1 -5.3923 2.55135 -5.13671 
35 1 -5.21273 6.47198 -4.53077 
36 1 0.965099 2.10364 5.99072 
37 1 1.27434 -1.40119 0.339145 
38 1 -2.11574 -4.07766 -6.38591 
39 1 -6.32568 -3.91764 -1.88649 
40 1 -3.31661 3.27065 1.17767 
41 1 3.53141 -2.21396 2.25361 
42 1 -0.841072 -4.8398 -1.07524 
43 1 6.64706 -5.00282 0.21963 
44 1 -3.7318 -1.98659 6.45191 
45 1 5.85009 -5.62732 6.13692 
46 1 -0.954991 0.625091 -4.81645 
47 1 -0.727979 2.16744 -1.84334 
48 1 2.29822 -3.10753 5.55675 
49 1 6.32054 -6.21332 2.23504 
50 1 2.766 2.57398 -6.80111 
51 2 5.01266 1.71646 -0.12874 
52 2 -6.24843 1.9912 -4.21271 
53 2 -2.86971 0.382883 5.78386 
54 2 -2.46982 -0.716754 0.922013 
55 2 -1.34729 -1.73425 4.33307 
56 2 6.01236 -0.261947 -3.16163 
57 2 3.46178 -3.5632 -0.792005 
58 2 -0.646756 -1.43187 -1.79058 
59 2 3.30161 5.98344 0.237581 
60 2 4.08711 0.832009 6.27415 
61 2 4.01252 -5.80469 -4.90268 
62 2 4.70482 5.23055 2.02194 
63 2 4.95723 4.6749 -6.12412 
64 2 2.89307 3.78426 -6.53021 
65 2 5.62949 -4.15103 0.671109 
66 2 -6.21514 4.01968 -5.16849 
67 2 -6.54866 -2.21155 1.0529 
68 2 3.70187 -5.85297 5.37139 
69 2 -1.57291 1.98637 -3.38984 
70 2 -4.60679 -3.15151 -6.82783 
71 2 -4.29519 1.94404 -1.88796 
72 2 2.8619 0.261604 -6.7286 
73 2 -4.71428 4.13433 6.52267 
74 2 -5.20416 -3.64563 -0.605073 
75 2 -0.770137 4.18061 6.23751 
76 2 3.49206 1.13111 0.407868 
77 2 -5.15544 -0.381403 5.5633 
78 2 4.93526 -2.3274 2.93234 
79 2 0.388547 -4.20184 -1.8485 
80 2 -6.02261 5.04107 3.65123 
81 2 6.67377 4.27099 -2.98482 
82 2 0.120285 -5.91485 2.50341 
83 2 -5.56581 0.717203 -5.98652 
84 2 -2.46396 -4.39451 -0.202454 
85 2 6.73855 6.20521 0.91743 
86 2 4.67869 0.00560888 -3.83326 
87 2 4.69138 3.10148 -6.79339 
88 2 -4.18402 -6.79813 4.3514 
89 2 -5.08405 6.53518 2.2777 
90 2 2.32547 -1.35326 -5.54569 
91 2 -3.50831 3.27783 -0.782786 
92 2 5.73422 -3.54818 2.37764 
93 2 3.76688 -1.1901 -0.363188 
94 2 0.657034 5.29226 3.12156 
95 2 -4.52053 -3.24152 0.719442 
96 2 -6.02039 -5.43439 -0.0764919 
97 2 0.0515088 -5.11376 -3.64077 
98 2 -0.952225 -3.37211 -5.51514 
99 2 -4.29815 -4.75325 4.0836 
100 2 0.97126 -3.84405 2.71405 
