ITEM: TIMESTEP
127000
ITEM: NUMBER OF ATOMS
100
ITEM: BOX BOUNDS pp pp pp
-6.83599 6.83599
-6.83599 6.83599
-6.83599 6.83599
ITEM: ATOMS id type x y z 
1 1 5.75442 -3.19148 -5.17773 
2 1 5.93969 -0.364147 1.99736 
3 1 -1.44564 3.68809 -0.669914 
4 1 3.83969 6.18356 -5.07986 
5 1 2.73463 -4.10629 -4.12997 
6 1 -1.49605 -6.27301 -3.18404 
7 1 2.55607 -5.44675 2.34409 
8 1 6.44757 5.30908 -5.58024 
9 1 5.86341 -5.77917 -1.08256 
10 1 4.74852 -2.36151 1.69175 
11 1 1.24598 -3.29039 -6.35283 
12 1 1.49385 -4.34845 -3.52102 
13 1 0.859584 1.19522 -0.698263 
14 1 3.09799 -5.41725 -5.31349 
15 1 -0.414618 0.822821 -0.00639749 
16 1 0.0393501 6.41682 0.442354 
17 1 -3.2024 -2.03839 -4.8013 
18 1 -5.01506 1.74949 4.3718 
19 1 4.08074 1.68404 -3.33941 
20 1 -5.56698 -2.96586 3.84194 
21 1 2.93944 5.72889 -4.05154 
22 1 1.75683 3.79153 -5.19498 
23 1 6.65336 6.38061 -6.34172 
24 1 0.242932 -5.12182 -6.62162 
25 1 4.35143 -1.14519 5.08174 
26 1 6.07996 -1.04278 5.96866 
27 1 -6.67094 2.99789 -0.335465 
28 1 -3.20064 5.04451 4.19905 
29 1 -1.81651 -1.29435 -2.67141 
30 1 -4.01368 -2.54967 -3.04646 
31 1 -3.84131 -4.10927 -0.897763 
32 1 -6.29003 3.03603 -4.6619 
33 1 -6.05478 1.99726 -6.40783 
34 1 -5.3096 2.46724 -5.14588 
35 1 -5.20378 6.43284 -4.55873 
36 1 0.931684 2.14738 6.09158 
37 1 1.28007 -1.32979 0.214137 
38 1 -2.06308 -3.93925 -6.33227 
39 1 -6.40233 -3.97376 -1.85821 
40 1 -3.36526 3.20129 1.17874 
41 1 3.60269 -2.2313 2.15914 
42 1 -0.846224 -4.85506 -1.1294 
43 1 6.6723 -4.97583 0.331777 
44 1 -3.56018 -2.00737 6.38602 
45 1 5.863 -5.57356 6.15692 
46 1 -1.11949 0.620409 -4.87184 
47 1 -0.728589 2.05707 -1.80257 
48 1 2.25575 -3.02605 5.44885 
49 1 6.46596 -6.1934 2.13754 
50 1 2.79239 2.47094 6.80189 
51 2 5.06217 1.71623 -0.133211 
52 2 -6.29371 2.02128 -4.12078 
53 2 -2.85736 0.487105 5.87574 
54 2 -2.51678 -0.765441 1.01132 
55 2 -1.32166 -1.75595 4.38413 
56 2 6.13981 -0.151976 -3.18055 
57 2 3.3261 -3.72906 -0.82174 
58 2 -0.566158 -1.61181 -1.88566 
59 2 3.28101 6.03906 0.270827 
60 2 4.16897 0.824374 6.3084 
61 2 4.00839 -5.73671 -4.85497 
62 2 4.83488 5.15415 2.1541 
63 2 4.99703 4.73059 -6.11248 
64 2 3.08162 3.78667 -6.51417 
65 2 5.64426 -4.16724 0.646587 
66 2 -6.31842 4.00674 -5.13342 
67 2 -6.62145 -2.12498 1.17563 
68 2 3.69003 -5.83604 5.38113 
69 2 -1.52445 1.9768 -3.31789 
70 2 -4.66806 -3.09927 6.81513 
71 2 -4.29517 1.96573 -2.06184 
72 2 2.86235 0.159693 -6.71004 
73 2 -4.8 4.17101 6.49454 
74 2 -5.19089 -3.62932 -0.647222 
75 2 -0.749855 4.03531 6.3066 
76 2 3.59672 1.09062 0.329656 
77 2 -5.1517 -0.281196 5.50706 
78 2 4.98907 -2.29843 2.95984 
79 2 0.311185 -4.20033 -1.80225 
80 2 -6.18269 5.07224 3.65259 
81 2 6.63472 4.26863 -2.99656 
82 2 0.0617842 -5.86882 2.63902 
83 2 -5.64448 0.730385 -6.03309 
84 2 -2.50805 -4.34831 -0.288535 
85 2 6.75225 6.24251 0.953351 
86 2 4.69644 0.0724092 -3.92507 
87 2 4.77702 3.13569 -6.83476 
88 2 -4.16693 -6.75746 4.33002 
89 2 -5.11148 6.5527 2.32666 
90 2 2.24487 -1.34184 -5.58418 
91 2 -3.48185 3.25789 -0.74226 
92 2 5.59822 -3.5309 2.48041 
93 2 3.79793 -1.18514 -0.369117 
94 2 0.638706 5.17046 3.08341 
95 2 -4.55185 -3.28617 0.749232 
96 2 -6.04924 -5.38795 -0.0153552 
97 2 -0.115305 -5.05116 -3.48641 
98 2 -0.906252 -3.38258 -5.49122 
99 2 -4.29277 -4.89499 3.95692 
100 2 1.0085 -3.71949 2.69985 
