ITEM: TIMESTEP
128000
ITEM: NUMBER OF ATOMS
100
ITEM: BOX BOUNDS pp pp pp
-6.83599 6.83599
-6.83599 6.83599
-6.83599 6.83599
ITEM: ATOMS id type x y z 
1 1 5.82173 -3.3192 -5.11665 
2 1 5.85672 -0.372401 2.06487 
3 1 -1.3919 3.67172 -0.737381 
4 1 3.85216 6.1554 -5.06835 
5 1 2.68134 -4.02466 -4.06376 
6 1 -1.49632 -6.19256 -3.1529 
7 1 2.43997 -5.40671 2.31932 
8 1 6.39806 5.36769 -5.69248 
9 1 5.95175 -5.77221 -1.01026 
10 1 4.73889 -2.35453 1.56431 
11 1 1.20784 -3.19023 -6.38095 
12 1 1.41794 -4.26184 -3.42879 
13 1 0.907901 1.06624 -0.847609 
14 1 3.05307 -5.36635 -5.23582 
15 1 -0.439814 0.876079 -0.0299436 
16 1 0.0544126 6.41071 0.356332 
17 1 -3.25857 -2.07129 -4.86005 
18 1 -5.00994 1.65322 4.28474 
19 1 4.10335 1.62038 -3.36247 
20 1 -5.46884 -3.10561 3.90236 
21 1 3.0456 5.82793 -4.15047 
22 1 1.75899 3.74202 -5.28759 
23 1 6.58081 6.45972 -6.33478 
24 1 0.31242 -5.04025 -6.63723 
25 1 4.40558 -1.12385 5.00523 
26 1 6.14525 -1.0034 6.02506 
27 1 -6.72214 3.06992 -0.362976 
28 1 -3.14526 5.06034 4.19236 
29 1 -1.77402 -1.28901 -2.71747 
30 1 -3.95343 -2.55912 -2.9643 
31 1 -3.81071 -4.05001 -0.807414 
32 1 -6.24717 3.07033 -4.68155 
33 1 -5.98562 1.91985 -6.49712 
34 1 -5.20329 2.39177 -5.14683 
35 1 -5.14422 6.40007 -4.60855 
36 1 0.902614 2.19042 6.1907 
37 1 1.29238 -1.24082 0.0629974 
38 1 -1.96987 -3.7852 -6.28303 
39 1 -6.46555 -4.03569 -1.82396 
40 1 -3.39761 3.12238 1.16876 
41 1 3.67811 -2.27277 2.03269 
42 1 -0.824068 -4.86856 -1.15792 
43 1 6.55438 -4.85126 0.45067 
44 1 -3.36169 -2.05782 6.29307 
45 1 5.88062 -5.5122 6.18765 
46 1 -1.26242 0.665983 -4.96074 
47 1 -0.73465 1.98429 -1.76385 
48 1 2.20972 -2.93574 5.33124 
49 1 6.58458 -6.14746 2.05548 
50 1 2.8422 2.34045 6.73253 
51 2 5.10102 1.73434 -0.139051 
52 2 -6.31582 2.01701 -4.04242 
53 2 -2.82535 0.58444 5.97566 
54 2 -2.56883 -0.802363 1.10677 
55 2 -1.29321 -1.76729 4.44309 
56 2 6.25866 -0.0409293 -3.19958 
57 2 3.19122 -3.91165 -0.829999 
58 2 -0.457032 -1.73483 -1.97776 
59 2 3.25338 6.11829 0.334915 
60 2 4.28681 0.797966 6.35231 
61 2 3.97454 -5.66796 -4.81649 
62 2 4.93488 5.0826 2.30432 
63 2 5.03709 4.78609 -6.09926 
64 2 3.23544 3.78019 -6.47405 
65 2 5.65411 -4.15473 0.58902 
66 2 -6.36146 4.02424 -5.13615 
67 2 -6.69346 -2.05752 1.29973 
68 2 3.68519 -5.85854 5.35352 
69 2 -1.50359 1.94673 -3.24143 
70 2 -4.68031 -2.99483 6.81551 
71 2 -4.32727 1.96551 -2.23216 
72 2 2.87875 0.10801 -6.70508 
73 2 -4.88888 4.16858 6.45551 
74 2 -5.15416 -3.60667 -0.714941 
75 2 -0.712329 3.89052 6.34319 
76 2 3.70923 1.03202 0.271158 
77 2 -5.17353 -0.249183 5.42057 
78 2 5.02703 -2.27751 2.96557 
79 2 0.241799 -4.17977 -1.77694 
80 2 -6.33903 5.09663 3.69672 
81 2 6.62877 4.27543 -3.0573 
82 2 -0.0197715 -5.85363 2.83613 
83 2 -5.70297 0.700902 -6.07764 
84 2 -2.55329 -4.31267 -0.414186 
85 2 6.80987 6.29105 0.990967 
86 2 4.73189 0.10878 -3.97814 
87 2 4.8513 3.18704 6.82448 
88 2 -4.14387 -6.7047 4.32983 
89 2 -5.11715 6.60375 2.39772 
90 2 2.18628 -1.34617 -5.59158 
91 2 -3.42733 3.22497 -0.702004 
92 2 5.46263 -3.52448 2.56472 
93 2 3.86017 -1.18636 -0.341091 
94 2 0.651333 5.05502 3.09767 
95 2 -4.594 -3.32098 0.788369 
96 2 -5.98661 -5.40619 0.0298592 
97 2 -0.281936 -4.97849 -3.34069 
98 2 -0.909254 -3.38704 -5.44619 
99 2 -4.26267 -5.03755 3.85515 
100 2 0.992376 -3.61314 2.73542 
