ITEM: TIMESTEP
129000
ITEM: NUMBER OF ATOMS
100
ITEM: BOX BOUNDS pp pp pp
-6.83599 6.83599
-6.83599 6.83599
-6.83599 6.83599
ITEM: ATOMS id type x y z 
1 1 5.86358 -3.43248 -5.00087 
2 1 5.80741 -0.380009 2.10016 
3 1 -1.33204 3.65577 -0.817996 
4 1 3.87646 6.06347 -5.04213 
5 1 2.63301 -3.97151 -4.02994 
6 1 -1.51895 -6.09133 -3.12832 
7 1 2.34903 -5.34181 2.29516 
8 1 6.31112 5.46387 -5.79227 
9 1 6.1077 -5.78908 -0.917443 
10 1 4.73028 -2.35111 1.43818 
11 1 1.21051 -3.09993 -6.40897 
12 1 1.31088 -4.24596 -3.41993 
13 1 1.02021 0.917333 -0.996315 
14 1 3.01928 -5.28301 -5.17427 
15 1 -0.471639 0.922427 -0.0826715 
16 1 0.0458746 6.36841 0.209852 
17 1 -3.3651 -2.07292 -4.92566 
18 1 -4.99653 1.58823 4.16785 
19 1 4.16242 1.55258 -3.43898 
20 1 -5.38321 -3.23618 3.89029 
21 1 3.13822 5.9211 -4.21614 
22 1 1.75098 3.72171 -5.42493 
23 1 6.50301 6.58222 -6.30233 
24 1 0.399174 -4.97692 -6.62829 
25 1 4.47706 -1.09713 4.9447 
26 1 6.23713 -0.940293 6.10084 
27 1 -6.78732 3.16573 -0.402428 
28 1 -3.0977 5.03129 4.19801 
29 1 -1.75612 -1.27088 -2.76086 
30 1 -3.9517 -2.56594 -2.91032 
31 1 -3.77673 -3.97666 -0.705494 
32 1 -6.22105 3.0959 -4.70557 
33 1 -5.96372 1.9242 -6.57725 
34 1 -5.09043 2.32562 -5.17285 
35 1 -5.10872 6.40127 -4.69158 
36 1 0.899375 2.23756 6.33381 
37 1 1.32169 -1.1675 -0.0932331 
38 1 -1.90219 -3.66419 -6.2527 
39 1 -6.50312 -4.10248 -1.77954 
40 1 -3.46269 3.01591 1.22602 
41 1 3.75595 -2.35366 1.87869 
42 1 -0.824386 -4.87825 -1.20163 
43 1 6.50775 -4.76149 0.544886 
44 1 -3.19155 -2.10881 6.21275 
45 1 5.90279 -5.44826 6.29687 
46 1 -1.36089 0.720431 -5.09597 
47 1 -0.706067 1.92173 -1.71172 
48 1 2.14955 -2.8502 5.19697 
49 1 6.68844 -6.10307 1.9705 
50 1 2.91917 2.23417 6.68213 
51 2 5.17312 1.76568 -0.148289 
52 2 -6.35095 1.98024 -3.95208 
53 2 -2.83888 0.667873 6.02961 
54 2 -2.6001 -0.80424 1.22528 
55 2 -1.33248 -1.76749 4.50332 
56 2 6.38275 0.0118722 -3.22226 
57 2 3.07018 -4.08785 -0.827872 
58 2 -0.348049 -1.8278 -2.04125 
59 2 3.26539 6.18031 0.414163 
60 2 4.42356 0.769547 6.42801 
61 2 3.96574 -5.59566 -4.7706 
62 2 5.03518 5.01555 2.41443 
63 2 5.08727 4.84263 -6.10473 
64 2 3.39539 3.76835 -6.43558 
65 2 5.63911 -4.12949 0.524225 
66 2 -6.3672 4.06313 -5.15193 
67 2 -6.77239 -1.98861 1.42565 
68 2 3.64061 -5.93785 5.33998 
69 2 -1.45419 1.87684 -3.1715 
70 2 -4.67066 -2.91148 -6.80692 
71 2 -4.38862 1.96461 -2.39292 
72 2 2.9244 0.0739043 -6.68906 
73 2 -4.96559 4.13976 6.42195 
74 2 -5.1452 -3.59677 -0.772328 
75 2 -0.700208 3.74555 6.37981 
76 2 3.79493 0.965662 0.199628 
77 2 -5.18818 -0.212827 5.32514 
78 2 5.0604 -2.24488 2.98204 
79 2 0.209181 -4.17876 -1.72 
80 2 -6.48429 5.14307 3.70368 
81 2 6.67538 4.23972 -3.07366 
82 2 -0.0844427 -5.77696 3.0302 
83 2 -5.71725 0.669535 -6.08616 
84 2 -2.61732 -4.29315 -0.539836 
85 2 -6.81047 6.32446 1.0261 
86 2 4.75083 0.138398 -4.0564 
87 2 4.95476 3.24284 6.82294 
88 2 -4.15212 -6.62807 4.35226 
89 2 -5.17648 6.61997 2.49357 
90 2 2.13022 -1.35727 -5.605 
91 2 -3.32485 3.2421 -0.656331 
92 2 5.32245 -3.51934 2.64214 
93 2 3.93191 -1.19357 -0.303203 
94 2 0.66082 4.9491 3.15477 
95 2 -4.6518 -3.3275 0.788473 
96 2 -5.95467 -5.44542 0.0481172 
97 2 -0.449886 -4.89282 -3.20523 
98 2 -0.912122 -3.44976 -5.36381 
99 2 -4.26384 -5.1609 3.80104 
100 2 0.97528 -3.52721 2.75199 
