ITEM: TIMESTEP
130000
ITEM: NUMBER OF ATOMS
100
ITEM: BOX BOUNDS pp pp pp
-6.83599 6.83599
-6.83599 6.83599
-6.83599 6.83599
ITEM: ATOMS id type x y z 
1 1 5.86777 -3.54942 -4.89735 
2 1 5.75893 -0.411989 2.13854 
3 1 -1.27218 3.65337 -0.894413 
4 1 3.94516 6.02263 -5.03275 
5 1 2.57295 -3.93054 -4.01134 
6 1 -1.54534 -6.01664 -3.10021 
7 1 2.25955 -5.30273 2.27281 
8 1 6.2273 5.53594 -5.9284 
9 1 6.25277 -5.82778 -0.808359 
10 1 4.88621 -2.31764 1.23892 
11 1 1.26044 -3.03787 -6.49744 
12 1 1.25334 -4.22363 -3.49549 
13 1 1.15263 0.769344 -1.1015 
14 1 2.98791 -5.1847 -5.14338 
15 1 -0.483553 0.962279 -0.126497 
16 1 0.060111 6.23848 0.0403753 
17 1 -3.45074 -2.02396 -4.95435 
18 1 -4.99221 1.49707 4.07166 
19 1 4.19083 1.48128 -3.47863 
20 1 -5.28479 -3.36103 3.91948 
21 1 3.21943 5.99894 -4.2422 
22 1 1.73525 3.73353 -5.57077 
23 1 6.43948 6.68332 -6.24448 
24 1 0.516185 -4.84653 -6.60745 
25 1 4.56596 -1.09666 4.88343 
26 1 6.341 -0.868859 6.17643 
27 1 6.83336 3.27228 -0.430181 
28 1 -3.02713 4.95532 4.21048 
29 1 -1.7652 -1.26195 -2.76194 
30 1 -3.91761 -2.56282 -2.85166 
31 1 -3.71268 -3.99069 -0.723511 
32 1 -6.21315 3.07722 -4.74215 
33 1 -5.86667 1.92348 -6.62152 
34 1 -5.01864 2.22732 -5.1996 
35 1 -5.05938 6.37672 -4.7284 
36 1 0.88183 2.29357 6.43774 
37 1 1.34293 -1.18978 -0.185725 
38 1 -1.83351 -3.54448 -6.21026 
39 1 -6.52987 -4.17379 -1.75885 
40 1 -3.52917 2.94963 1.2542 
41 1 3.71225 -2.40747 1.78985 
42 1 -0.823645 -4.88017 -1.25387 
43 1 6.5052 -4.69491 0.589805 
44 1 -3.01199 -2.12944 6.16669 
45 1 5.92484 -5.39626 6.42314 
46 1 -1.44191 0.704881 -5.23457 
47 1 -0.706477 1.83525 -1.69122 
48 1 2.07716 -2.75478 5.08148 
49 1 6.77751 -6.05292 1.88193 
50 1 2.97979 2.19483 6.61721 
51 2 5.2641 1.807 -0.145884 
52 2 -6.38795 1.98691 -3.86771 
53 2 -2.85794 0.725535 6.08144 
54 2 -2.66085 -0.844218 1.34265 
55 2 -1.38911 -1.80338 4.59239 
56 2 6.51806 0.0371771 -3.26481 
57 2 2.97146 -4.26366 -0.813343 
58 2 -0.218744 -1.91904 -2.07999 
59 2 3.3345 6.26762 0.475334 
60 2 4.54632 0.711577 6.52426 
61 2 3.93633 -5.54036 -4.69572 
62 2 5.1218 4.93318 2.50124 
63 2 5.15426 4.87625 -6.1053 
64 2 3.5608 3.76509 -6.39969 
65 2 5.61062 -4.07076 0.480078 
66 2 -6.385 4.07745 -5.15633 
67 2 6.79589 -1.89521 1.5535 
68 2 3.57441 -6.05654 5.34083 
69 2 -1.39743 1.78673 -3.11355 
70 2 -4.62095 -2.84202 -6.7415 
71 2 -4.42882 1.97254 -2.49253 
72 2 2.95172 0.026423 -6.67503 
73 2 -5.0166 4.08548 6.37713 
74 2 -5.20202 -3.58325 -0.765342 
75 2 -0.682519 3.66057 6.4528 
76 2 3.86935 0.871629 0.118471 
77 2 -5.19987 -0.199126 5.23747 
78 2 5.09504 -2.20456 3.00628 
79 2 0.131817 -4.19414 -1.64932 
80 2 -6.60147 5.16847 3.72034 
81 2 6.69491 4.20429 -3.04166 
82 2 -0.148633 -5.61684 3.20029 
83 2 -5.7458 0.656422 -6.04173 
84 2 -2.67891 -4.28494 -0.651742 
85 2 -6.80007 6.31922 1.05441 
86 2 4.76684 0.198315 -4.13894 
87 2 5.07419 3.28389 6.81611 
88 2 -4.18696 -6.52986 4.40892 
89 2 -5.23024 6.59805 2.54258 
90 2 2.11865 -1.3896 -5.64683 
91 2 -3.18721 3.31174 -0.697151 
92 2 5.16209 -3.50781 2.71553 
93 2 4.01791 -1.21047 -0.26273 
94 2 0.661437 4.85246 3.21891 
95 2 -4.69065 -3.3743 0.746175 
96 2 -5.95465 -5.50173 0.0170861 
97 2 -0.62004 -4.812 -3.07709 
98 2 -0.937436 -3.49669 -5.27153 
99 2 -4.27057 -5.28365 3.75703 
100 2 0.989941 -3.44669 2.77934 
