ITEM: TIMESTEP
132000
ITEM: NUMBER OF ATOMS
100
ITEM: BOX BOUNDS pp pp pp
-6.83599 6.83599
-6.83599 6.83599
-6.83599 6.83599
ITEM: ATOMS id type x y z 
1 1 5.8945 -3.75792 -4.69871 
2 1 5.64374 -0.32714 2.27706 
3 1 -1.19893 3.67051 -1.0373 
4 1 4.17166 5.93496 -5.01754 
5 1 2.55944 -3.83248 -4.02007 
6 1 -1.68091 -5.84552 -3.15127 
7 1 2.07308 -5.185 2.33227 
8 1 6.0802 5.64313 -6.20002 
9 1 6.46714 -5.90073 -0.66273 
10 1 5.20029 -2.31501 0.848189 
11 1 1.34433 -2.91303 -6.60369 
12 1 1.06827 -4.20342 -3.56916 
13 1 1.33072 0.492349 -1.16532 
14 1 2.84979 -5.01532 -5.07624 
15 1 -0.676537 1.09386 -0.216908 
16 1 -0.0486653 6.07577 -0.280056 
17 1 -3.66654 -1.99019 -4.9897 
18 1 -4.99743 1.3512 3.93236 
19 1 4.27302 1.33952 -3.47684 
20 1 -5.19334 -3.46302 4.02415 
21 1 3.32618 6.19455 -4.32574 
22 1 1.63963 3.71206 -5.6772 
23 1 6.41168 6.75213 -6.1167 
24 1 0.739933 -4.56078 -6.52345 
25 1 4.66358 -1.16424 4.69668 
26 1 6.46931 -0.649901 6.29942 
27 1 6.70379 3.42632 -0.474668 
28 1 -2.93233 4.843 4.17314 
29 1 -1.83458 -1.31142 -2.7523 
30 1 -3.80042 -2.54621 -2.68773 
31 1 -3.78984 -3.94076 -0.871158 
32 1 -6.21479 3.01109 -4.81218 
33 1 -5.77903 1.93542 -6.64584 
34 1 -4.90697 1.99323 -5.21497 
35 1 -4.98028 6.24131 -4.87225 
36 1 0.812965 2.4161 6.51605 
37 1 1.36056 -1.23175 -0.352876 
38 1 -1.67825 -3.43287 -6.17539 
39 1 -6.64465 -4.33695 -1.70747 
40 1 -3.57972 2.88177 1.14339 
41 1 3.54698 -2.57427 1.60906 
42 1 -0.79844 -4.93187 -1.40334 
43 1 6.60071 -4.55745 0.800677 
44 1 -2.75439 -2.30726 5.99685 
45 1 5.93962 -5.32697 6.68758 
46 1 -1.64203 0.752662 -5.43022 
47 1 -0.640995 1.64595 -1.62332 
48 1 1.99139 -2.58118 4.90184 
49 1 -6.76063 -5.95926 1.75641 
50 1 3.10035 2.19905 6.46373 
51 2 5.48207 1.88546 -0.0795835 
52 2 -6.51456 2.1084 -3.71299 
53 2 -2.77276 0.774979 6.26492 
54 2 -2.77214 -0.966745 1.66406 
55 2 -1.48979 -1.92754 4.68818 
56 2 6.69779 0.0865482 -3.35724 
57 2 2.85794 -4.61322 -0.890481 
58 2 0.0180746 -2.08673 -2.14722 
59 2 3.44693 6.40905 0.614752 
60 2 4.74865 0.654507 6.66426 
61 2 3.87169 -5.45866 -4.51407 
62 2 5.24146 4.83867 2.65259 
63 2 5.27976 4.98216 -6.07274 
64 2 3.76852 3.6868 -6.41065 
65 2 5.52234 -4.05286 0.55133 
66 2 -6.45707 4.12874 -5.1897 
67 2 6.6205 -1.74303 1.79869 
68 2 3.57248 -6.35898 5.28439 
69 2 -1.2752 1.59833 -3.01003 
70 2 -4.53648 -2.76437 -6.62317 
71 2 -4.38664 2.00878 -2.65205 
72 2 3.07047 -0.0113775 -6.60609 
73 2 -5.11241 4.07575 6.32968 
74 2 -5.2868 -3.4505 -0.797513 
75 2 -0.603885 3.48552 6.56833 
76 2 4.01571 0.664882 -0.0471856 
77 2 -5.29379 -0.29974 5.11252 
78 2 5.18526 -2.09116 3.06164 
79 2 -0.0430886 -4.21496 -1.58418 
80 2 -6.77469 5.22299 3.80267 
81 2 6.75244 4.17782 -3.03983 
82 2 -0.294971 -5.36368 3.44941 
83 2 -5.8293 0.589227 -5.91696 
84 2 -2.60265 -4.33809 -0.894016 
85 2 6.78168 6.30617 1.05636 
86 2 4.844 0.273546 -4.23488 
87 2 5.17292 3.40634 6.77033 
88 2 -4.2163 -6.32657 4.49658 
89 2 -5.16263 6.54852 2.58832 
90 2 2.04771 -1.44544 -5.70799 
91 2 -2.80762 3.46186 -0.77336 
92 2 4.89269 -3.42434 2.81991 
93 2 4.11746 -1.3123 -0.206588 
94 2 0.619349 4.71325 3.29745 
95 2 -4.81476 -3.48153 0.716635 
96 2 -5.97587 -5.52617 0.125054 
97 2 -0.832035 -4.67248 -2.91265 
98 2 -1.00568 -3.52316 -5.18778 
99 2 -4.33751 -5.55528 3.72982 
100 2 0.864407 -3.17308 2.93963 
