ITEM: TIMESTEP
135000
ITEM: NUMBER OF ATOMS
100
ITEM: BOX BOUNDS pp pp pp
-6.83599 6.83599
-6.83599 6.83599
-6.83599 6.83599
ITEM: ATOMS id type x y z 
1 1 5.92834 -4.10496 -4.28514 
2 1 5.55037 -0.332298 2.55127 
3 1 -1.0563 3.66495 -1.38248 
4 1 4.55467 5.79654 -4.99831 
5 1 2.37371 -3.71255 -4.02954 
6 1 -1.97157 -5.65347 -3.33927 
7 1 1.85758 -4.95904 2.44408 
8 1 5.82887 5.75994 -6.78091 
9 1 6.68068 -6.23488 -0.610131 
10 1 5.52727 -2.40316 0.341959 
11 1 1.50636 -2.59907 -6.67486 
12 1 0.752817 -4.01903 -3.6001 
13 1 1.62057 0.0613037 -1.28707 
14 1 2.69005 -5.0186 -4.96302 
15 1 -0.945845 1.05189 -0.274907 
16 1 -0.21178 5.81864 -0.639426 
17 1 -3.90049 -2.06465 -4.88234 
18 1 -5.12367 1.16848 3.92529 
19 1 4.52251 1.03741 -3.55269 
20 1 -4.94721 -3.49773 4.27039 
21 1 3.38448 6.31973 -4.43708 
22 1 1.6168 3.66678 -6.0041 
23 1 6.34734 6.76681 -5.82938 
24 1 1.05981 -4.29942 -6.21939 
25 1 4.77264 -1.36864 4.37892 
26 1 6.5981 -0.294867 6.574 
27 1 6.29704 3.56532 -0.4898 
28 1 -2.7767 4.88095 4.12543 
29 1 -1.80031 -1.42117 -2.78282 
30 1 -3.58116 -2.50527 -2.62084 
31 1 -3.8239 -3.97048 -1.1403 
32 1 -6.44229 3.00969 -4.93154 
33 1 -5.60889 1.92827 -6.81685 
34 1 -4.91959 1.68743 -5.17955 
35 1 -4.90541 6.26187 -5.06506 
36 1 0.722895 2.43014 6.45797 
37 1 1.29866 -1.44357 -0.549487 
38 1 -1.57913 -3.22633 -6.37364 
39 1 -6.75149 -4.45852 -1.71759 
40 1 -3.64511 2.84708 1.02774 
41 1 3.38486 -2.92799 1.55917 
42 1 -0.925037 -5.24816 -1.58043 
43 1 6.60209 -4.10932 1.19267 
44 1 -2.61427 -2.56616 5.85136 
45 1 6.02686 -5.32951 -6.71182 
46 1 -1.78331 0.860934 -5.79345 
47 1 -0.601097 1.41351 -1.61693 
48 1 1.85672 -2.41074 4.68517 
49 1 -6.49414 -5.684 1.65382 
50 1 3.30511 2.26041 6.24486 
51 2 5.73952 1.92575 -0.0296149 
52 2 -6.70317 2.1715 -3.57839 
53 2 -2.75086 0.825527 6.67661 
54 2 -2.86871 -0.94447 2.11971 
55 2 -1.77034 -2.18944 4.84919 
56 2 6.83652 0.2443 -3.67085 
57 2 2.84692 -5.05358 -1.15681 
58 2 0.179711 -2.18201 -2.12644 
59 2 3.4817 6.66341 0.707348 
60 2 4.87106 0.68187 -6.82823 
61 2 3.75155 -5.33261 -4.38199 
62 2 5.38742 4.75986 2.82022 
63 2 5.24217 4.95511 -5.99566 
64 2 4.13308 3.51609 -6.37603 
65 2 5.41387 -4.2393 0.784899 
66 2 -6.43439 4.13398 -5.1884 
67 2 6.54102 -1.62902 2.08629 
68 2 3.56954 -6.83405 5.1975 
69 2 -1.05518 1.2241 -2.79007 
70 2 -4.48569 -2.76908 -6.51947 
71 2 -4.31055 1.94254 -2.85811 
72 2 3.15659 0.109618 -6.46945 
73 2 -5.1582 4.13647 6.21006 
74 2 -5.37841 -3.28291 -0.767353 
75 2 -0.56708 3.28834 6.57297 
76 2 4.1999 0.399861 -0.349221 
77 2 -5.43836 -0.475779 4.92687 
78 2 5.21759 -1.98088 3.20243 
79 2 -0.181256 -4.10742 -1.3097 
80 2 6.6871 5.17345 3.70572 
81 2 -6.82985 4.30341 -2.98713 
82 2 -0.365194 -4.95367 3.72973 
83 2 -5.77953 0.481237 -5.76567 
84 2 -2.59211 -4.33477 -1.28146 
85 2 6.54796 6.29858 1.07006 
86 2 4.71899 0.31619 -4.2684 
87 2 5.35416 3.88178 6.80083 
88 2 -4.15986 -6.22765 4.65658 
89 2 -4.97075 6.48577 2.59928 
90 2 1.90091 -1.51538 -5.74049 
91 2 -2.18621 3.79076 -0.907161 
92 2 4.54525 -3.18649 2.85439 
93 2 4.25696 -1.68692 -0.103825 
94 2 0.510136 4.48124 3.44413 
95 2 -4.74818 -3.8098 0.662145 
96 2 -6.03705 -5.51721 0.184902 
97 2 -1.22591 -4.61573 -2.75725 
98 2 -1.05485 -3.50726 -4.97623 
99 2 -4.52879 -5.64652 3.59666 
100 2 0.654658 -2.71767 3.36652 
