ITEM: TIMESTEP
137000
ITEM: NUMBER OF ATOMS
100
ITEM: BOX BOUNDS pp pp pp
-6.83599 6.83599
-6.83599 6.83599
-6.83599 6.83599
ITEM: ATOMS id type x y z 
1 1 6.06892 -4.20075 -4.0364 
2 1 5.41679 -0.378179 2.69687 
3 1 -0.985969 3.69172 -1.55188 
4 1 4.65838 5.72713 -5.04264 
5 1 2.20841 -3.56251 -4.06738 
6 1 -2.12016 -5.64072 -3.50902 
7 1 1.77352 -4.92496 2.52004 
8 1 5.67026 5.82176 6.58935 
9 1 6.83048 -6.40454 -0.611711 
10 1 5.74143 -2.43999 0.14681 
11 1 1.71125 -2.46934 -6.82573 
12 1 0.409008 -3.99203 -3.57274 
13 1 1.8355 -0.219027 -1.31253 
14 1 2.65228 -5.03277 -4.85352 
15 1 -1.01269 0.990597 -0.367343 
16 1 -0.457894 5.61211 -0.809712 
17 1 -3.91407 -2.03774 -4.937 
18 1 -5.12047 1.1545 3.95188 
19 1 4.64142 0.961346 -3.45933 
20 1 -4.69927 -3.56764 4.4891 
21 1 3.34659 6.45559 -4.5502 
22 1 1.69209 3.69059 -6.24123 
23 1 6.23104 -6.73706 -5.79673 
24 1 1.28781 -4.19707 -6.02032 
25 1 4.95904 -1.51372 4.20806 
26 1 6.70399 -0.00691109 6.67023 
27 1 5.99485 3.62847 -0.539895 
28 1 -2.58409 5.01771 4.02812 
29 1 -1.76533 -1.59984 -2.84131 
30 1 -3.50863 -2.44277 -2.57882 
31 1 -3.818 -4.03165 -1.25907 
32 1 -6.5658 3.11043 -5.01443 
33 1 -5.53809 1.89312 6.74955 
34 1 -4.78595 1.56461 -5.23885 
35 1 -4.87996 6.38816 -5.22276 
36 1 0.772566 2.43791 6.32644 
37 1 1.26299 -1.59476 -0.621346 
38 1 -1.52449 -3.00572 -6.69937 
39 1 -6.83328 -4.55516 -1.86573 
40 1 -3.67726 2.96948 1.11859 
41 1 3.23502 -3.05818 1.62168 
42 1 -1.09363 -5.45819 -1.55748 
43 1 6.49221 -3.76288 1.33075 
44 1 -2.5565 -2.73572 5.80566 
45 1 6.11873 -5.21655 -6.61842 
46 1 -1.81508 0.897846 -6.01039 
47 1 -0.59246 1.16201 -1.58735 
48 1 1.74958 -2.35662 4.59332 
49 1 -6.36886 -5.59593 1.67811 
50 1 3.37301 2.22019 6.15321 
51 2 5.9251 2.00235 -0.00952422 
52 2 6.797 2.23964 -3.55605 
53 2 -2.74188 0.934896 -6.79659 
54 2 -3.06355 -0.936975 2.28667 
55 2 -2.01583 -2.43408 4.87082 
56 2 -6.78688 0.42715 -3.8193 
57 2 2.93075 -5.36927 -1.40144 
58 2 0.282086 -2.2483 -2.13954 
59 2 3.47382 6.8291 0.721006 
60 2 4.87874 0.841164 -6.76219 
61 2 3.63098 -5.30387 -4.36778 
62 2 5.62774 4.62485 2.92993 
63 2 5.25062 4.9546 -5.93892 
64 2 4.29684 3.40863 -6.40074 
65 2 5.52093 -4.36402 0.956777 
66 2 -6.30556 4.14928 -5.16899 
67 2 6.42905 -1.58134 2.18632 
68 2 3.53066 6.5466 5.2356 
69 2 -1.10202 1.06619 -2.58446 
70 2 -4.57758 -2.79047 -6.41665 
71 2 -4.30914 1.92213 -2.9963 
72 2 3.18556 0.146952 -6.3991 
73 2 -5.21735 4.23748 6.14844 
74 2 -5.39544 -3.12154 -0.628439 
75 2 -0.451965 3.36574 6.62104 
76 2 4.34014 0.316147 -0.778177 
77 2 -5.57435 -0.613546 4.71213 
78 2 5.24943 -1.88425 3.27124 
79 2 -0.259476 -4.06076 -1.23418 
80 2 6.53859 5.20446 3.56766 
81 2 -6.79734 4.49201 -2.95464 
82 2 -0.175944 -4.72862 3.92247 
83 2 -5.47565 0.385843 -5.64057 
84 2 -2.70309 -4.37243 -1.49364 
85 2 6.41348 6.33451 1.03134 
86 2 4.69271 0.211791 -4.30678 
87 2 5.47816 4.17431 -6.82975 
88 2 -4.1959 -6.12811 4.78179 
89 2 -4.744 6.45616 2.5977 
90 2 1.89195 -1.53375 -5.77564 
91 2 -1.8439 3.95115 -1.02961 
92 2 4.4226 -2.95778 2.84453 
93 2 4.29508 -1.89004 0.00296302 
94 2 0.468399 4.3271 3.57805 
95 2 -4.76216 -3.87311 0.568415 
96 2 -6.0725 -5.54302 0.194891 
97 2 -1.516 -4.72112 -2.72214 
98 2 -1.08856 -3.3848 -4.80087 
99 2 -4.67542 -5.68607 3.40373 
100 2 0.584398 -2.46972 3.70711 
