ITEM: TIMESTEP
139000
ITEM: NUMBER OF ATOMS
100
ITEM: BOX BOUNDS pp pp pp
-6.83599 6.83599
-6.83599 6.83599
-6.83599 6.83599
ITEM: ATOMS id type x y z 
1 1 6.2462 -4.23384 -3.74523 
2 1 5.25206 -0.231598 2.8646 
3 1 -0.770935 3.59581 -1.68849 
4 1 4.75564 5.58984 -5.10324 
5 1 2.08743 -3.49617 -4.16567 
6 1 -2.16939 -5.84561 -3.67426 
7 1 1.72519 -4.88566 2.60743 
8 1 5.47466 5.7256 6.21246 
9 1 -6.75958 -6.4881 -0.628963 
10 1 5.94149 -2.50868 -0.0520832 
11 1 1.86056 -2.32965 6.62507 
12 1 0.0552012 -4.0508 -3.57657 
13 1 2.01133 -0.306219 -1.26764 
14 1 2.66264 -5.0352 -4.78473 
15 1 -0.994769 0.776856 -0.42636 
16 1 -0.636177 5.66335 -0.99731 
17 1 -3.92276 -2.01339 -5.03548 
18 1 -5.15607 1.12776 3.98143 
19 1 4.75239 0.77976 -3.36259 
20 1 -4.58058 -3.73516 4.54131 
21 1 3.25529 6.68607 -4.71176 
22 1 1.7899 3.57275 -6.39302 
23 1 6.19472 -6.52143 -5.81297 
24 1 1.48903 -4.11816 -5.74574 
25 1 5.16632 -1.54118 4.33336 
26 1 6.72728 0.273026 6.66909 
27 1 5.73859 3.67463 -0.712255 
28 1 -2.40207 5.06963 3.96944 
29 1 -1.85813 -1.87283 -2.87933 
30 1 -3.46611 -2.42555 -2.415 
31 1 -3.70775 -3.96221 -1.42523 
32 1 -6.704 3.10466 -5.13265 
33 1 -5.42411 1.92018 6.59055 
34 1 -4.61663 1.46487 -5.3093 
35 1 -4.84626 6.56141 -5.46465 
36 1 0.917492 2.47243 6.2141 
37 1 1.23007 -1.73449 -0.602575 
38 1 -1.53172 -2.82191 6.76288 
39 1 6.78277 -4.65719 -2.01966 
40 1 -3.57867 3.05399 1.26379 
41 1 3.23346 -3.27049 1.66928 
42 1 -1.18087 -5.74632 -1.62541 
43 1 6.36485 -3.38435 1.52188 
44 1 -2.66302 -2.91094 5.93553 
45 1 6.2113 -5.13781 -6.58698 
46 1 -1.74172 0.833468 -6.19465 
47 1 -0.482863 1.0643 -1.36085 
48 1 1.67892 -2.38873 4.61147 
49 1 -6.19112 -5.54283 1.64142 
50 1 3.54758 2.2393 6.13928 
51 2 6.05389 2.13391 -0.13158 
52 2 6.63803 2.32944 -3.40346 
53 2 -2.78525 1.02505 -6.67359 
54 2 -3.2671 -0.945655 2.47669 
55 2 -2.21677 -2.61889 4.93815 
56 2 6.78545 0.617284 -3.91802 
57 2 3.08691 -5.65729 -1.73168 
58 2 0.369625 -2.286 -2.13882 
59 2 3.42009 -6.78335 0.674947 
60 2 4.9736 1.01211 -6.66639 
61 2 3.54263 -5.40725 -4.23455 
62 2 5.77184 4.53894 3.09898 
63 2 5.30255 4.98957 -6.01589 
64 2 4.40755 3.35857 -6.36626 
65 2 5.76038 -4.4278 1.05734 
66 2 -6.11699 4.31232 -5.19913 
67 2 6.34003 -1.54104 2.30327 
68 2 3.51888 6.20131 5.33689 
69 2 -1.19484 0.782997 -2.59865 
70 2 -4.6675 -2.87266 -6.3899 
71 2 -4.28283 1.69285 -2.94467 
72 2 3.18926 0.217507 -6.41894 
73 2 -5.29437 4.35024 6.07569 
74 2 -5.4014 -3.04283 -0.546749 
75 2 -0.421726 3.5498 6.63361 
76 2 4.53661 0.240384 -1.26796 
77 2 -5.75476 -0.880797 4.46833 
78 2 5.33704 -1.87911 3.16465 
79 2 -0.525554 -3.93543 -1.17623 
80 2 6.46364 5.24263 3.50074 
81 2 -6.79638 4.82432 -2.92465 
82 2 0.0217262 -4.55391 4.02949 
83 2 -5.24487 0.342615 -5.43764 
84 2 -2.81205 -4.48432 -1.6146 
85 2 6.34889 6.42194 0.896848 
86 2 4.70658 0.108249 -4.26613 
87 2 5.54544 4.35653 -6.79675 
88 2 -4.17309 -6.02122 4.86211 
89 2 -4.64279 6.48507 2.68569 
90 2 1.85993 -1.5161 -5.81982 
91 2 -1.77724 4.06044 -1.02371 
92 2 4.38786 -2.73717 2.72332 
93 2 4.31683 -2.05717 0.0894424 
94 2 0.434593 4.16261 3.81904 
95 2 -4.79394 -3.85061 0.481563 
96 2 -6.06197 -5.58386 0.108999 
97 2 -1.72287 -4.76557 -2.70622 
98 2 -1.17931 -3.26532 -4.61914 
99 2 -4.73415 -5.74307 3.2007 
100 2 0.57516 -2.18799 3.93704 
