ITEM: TIMESTEP
140000
ITEM: NUMBER OF ATOMS
100
ITEM: BOX BOUNDS pp pp pp
-6.83599 6.83599
-6.83599 6.83599
-6.83599 6.83599
ITEM: ATOMS id type x y z 
1 1 6.31467 -4.33058 -3.6178 
2 1 5.15547 -0.2107 2.92063 
3 1 -0.689881 3.54633 -1.81612 
4 1 4.83232 5.51448 -5.13626 
5 1 2.0087 -3.45701 -4.18199 
6 1 -2.22684 -5.97365 -3.78219 
7 1 1.68863 -4.90762 2.66863 
8 1 5.34113 5.75459 6.04529 
9 1 -6.71367 -6.53096 -0.63336 
10 1 5.99793 -2.57814 -0.151812 
11 1 1.92839 -2.28755 6.5164 
12 1 -0.100676 -4.0282 -3.64042 
13 1 2.03338 -0.337953 -1.24679 
14 1 2.57918 -5.01419 -4.7461 
15 1 -1.02304 0.699203 -0.415932 
16 1 -0.745554 5.65815 -1.09747 
17 1 -3.92168 -2.02709 -5.11184 
18 1 -5.20244 1.11746 4.04233 
19 1 4.77261 0.710271 -3.2645 
20 1 -4.58153 -3.81921 4.49631 
21 1 3.24084 6.82669 -4.7548 
22 1 1.86567 3.52796 -6.47716 
23 1 6.16224 -6.41978 -5.84268 
24 1 1.57395 -4.07055 -5.61983 
25 1 5.26762 -1.60097 4.34939 
26 1 6.74562 0.378026 6.61161 
27 1 5.69062 3.69288 -0.860317 
28 1 -2.37414 5.075 3.90704 
29 1 -1.91842 -2.0143 -2.85924 
30 1 -3.46293 -2.40419 -2.3162 
31 1 -3.72892 -3.88626 -1.45904 
32 1 -6.78359 3.12134 -5.19851 
33 1 -5.41351 1.93983 6.54705 
34 1 -4.49063 1.41255 -5.35162 
35 1 -4.82724 6.62589 -5.55836 
36 1 1.00081 2.51749 6.17487 
37 1 1.22262 -1.82707 -0.570158 
38 1 -1.56214 -2.77755 6.66095 
39 1 6.69681 -4.70562 -2.13774 
40 1 -3.53812 3.09152 1.30317 
41 1 3.27179 -3.39775 1.66448 
42 1 -1.20505 -5.812 -1.65396 
43 1 6.28046 -3.19788 1.61328 
44 1 -2.75621 -2.9343 6.05353 
45 1 6.28664 -5.08022 -6.63979 
46 1 -1.70091 0.824156 -6.30082 
47 1 -0.424642 1.01081 -1.23178 
48 1 1.66405 -2.40952 4.64016 
49 1 -6.07762 -5.52379 1.63897 
50 1 3.58236 2.28024 6.07429 
51 2 6.07342 2.17028 -0.225381 
52 2 6.53178 2.3966 -3.28397 
53 2 -2.78204 1.03771 -6.62885 
54 2 -3.34324 -0.977853 2.52151 
55 2 -2.26239 -2.6859 4.92556 
56 2 6.72439 0.718838 -3.92733 
57 2 3.16688 -5.81137 -1.87192 
58 2 0.381496 -2.30976 -2.15732 
59 2 3.3683 -6.7643 0.647529 
60 2 4.98335 1.0831 -6.60489 
61 2 3.6035 -5.49808 -4.10535 
62 2 5.76003 4.44134 3.16785 
63 2 5.31431 5.00219 -6.00634 
64 2 4.48335 3.3604 -6.34813 
65 2 5.90145 -4.41804 1.09235 
66 2 -6.0221 4.40471 -5.22109 
67 2 6.33338 -1.49996 2.31557 
68 2 3.52836 5.99936 5.40665 
69 2 -1.24718 0.638715 -2.61671 
70 2 -4.6777 -2.91358 -6.37463 
71 2 -4.26182 1.57845 -2.87848 
72 2 3.19659 0.300643 -6.40413 
73 2 -5.31736 4.40289 5.98845 
74 2 -5.37898 -3.04311 -0.501514 
75 2 -0.403406 3.67045 6.61768 
76 2 4.62354 0.208389 -1.54429 
77 2 -5.85431 -1.01575 4.36946 
78 2 5.39491 -1.85177 3.19798 
79 2 -0.611102 -3.83838 -1.16027 
80 2 6.51183 5.29452 3.55226 
81 2 -6.79298 4.98818 -2.90606 
82 2 0.0529606 -4.47302 4.07382 
83 2 -5.14558 0.316018 -5.34228 
84 2 -2.80303 -4.6047 -1.74156 
85 2 6.28857 6.51629 0.819791 
86 2 4.69544 0.0773498 -4.2559 
87 2 5.59927 4.39114 6.7986 
88 2 -4.15001 -5.9872 4.84474 
89 2 -4.55899 6.47216 2.77958 
90 2 1.8517 -1.47281 -5.83639 
91 2 -1.77568 4.09311 -1.06273 
92 2 4.39277 -2.70279 2.63205 
93 2 4.29822 -2.15803 0.122101 
94 2 0.464234 4.12864 3.89646 
95 2 -4.77567 -3.85231 0.403863 
96 2 -6.07414 -5.64196 0.0461136 
97 2 -1.80805 -4.77877 -2.73818 
98 2 -1.24171 -3.17647 -4.5476 
99 2 -4.77157 -5.76253 3.14963 
100 2 0.56041 -1.99776 4.01337 
