ITEM: TIMESTEP
143000
ITEM: NUMBER OF ATOMS
100
ITEM: BOX BOUNDS pp pp pp
-6.83599 6.83599
-6.83599 6.83599
-6.83599 6.83599
ITEM: ATOMS id type x y z 
1 1 6.59646 -4.65323 -3.41899 
2 1 4.97413 -0.211291 2.90488 
3 1 -0.372448 3.45568 -2.20988 
4 1 5.07375 5.4153 -5.11875 
5 1 1.7288 -3.19633 -4.23101 
6 1 -2.39081 -6.18392 -4.13577 
7 1 1.427 -4.9741 2.70725 
8 1 5.0561 5.7658 5.6409 
9 1 -6.47426 -6.61826 -0.660883 
10 1 6.24052 -2.69031 -0.306393 
11 1 2.05232 -2.16828 6.20898 
12 1 -0.539021 -4.04914 -3.85476 
13 1 2.07721 -0.623514 -1.22783 
14 1 2.37962 -5.05537 -4.61769 
15 1 -1.19604 0.469293 -0.467555 
16 1 -0.951628 5.66647 -1.34887 
17 1 -4.05826 -2.08172 -5.2714 
18 1 -5.27037 0.988398 4.16588 
19 1 4.90754 0.656947 -3.14914 
20 1 -4.49754 -4.11484 4.31872 
21 1 3.26127 -6.38865 -4.92288 
22 1 2.03142 3.569 -6.66367 
23 1 6.02949 -6.12206 -5.87071 
24 1 1.83732 -3.99264 -5.11372 
25 1 5.45904 -1.8212 4.55472 
26 1 6.73211 0.486022 6.41787 
27 1 5.57033 3.76038 -1.03016 
28 1 -2.21351 5.119 3.90828 
29 1 -2.03126 -2.20438 -3.01179 
30 1 -3.49369 -2.29991 -1.96812 
31 1 -3.58316 -3.77075 -1.53878 
32 1 6.70912 3.13367 -5.28624 
33 1 -5.38262 2.04231 6.38631 
34 1 -4.08681 1.18837 -5.44734 
35 1 -4.81035 6.82335 -5.75295 
36 1 1.1527 2.627 6.09933 
37 1 1.05379 -2.002 -0.451251 
38 1 -1.77685 -2.6876 6.37449 
39 1 6.47562 -4.8313 -2.34029 
40 1 -3.58349 3.07873 1.55938 
41 1 3.29945 -3.67745 1.6436 
42 1 -1.26563 -6.03383 -1.59682 
43 1 6.08562 -2.9 1.88754 
44 1 -2.82906 -3.02642 6.12053 
45 1 6.41551 -4.76328 -6.68254 
46 1 -1.53335 1.00565 -6.74337 
47 1 -0.310937 0.935162 -0.989235 
48 1 1.67289 -2.5753 4.74881 
49 1 -5.70947 -5.28956 1.65105 
50 1 3.73616 2.5067 5.8139 
51 2 5.95085 2.06283 -0.658653 
52 2 6.14198 2.67801 -3.03623 
53 2 -2.86692 1.18725 -6.50172 
54 2 -3.595 -1.00478 2.77254 
55 2 -2.56371 -2.79452 5.06242 
56 2 6.51971 0.879159 -3.92887 
57 2 3.29629 -6.23617 -2.26708 
58 2 0.489914 -2.42107 -2.24003 
59 2 3.33941 -6.77307 0.700682 
60 2 4.92393 1.20346 -6.25948 
61 2 3.64745 -5.68035 -3.72438 
62 2 5.54182 4.07798 3.2632 
63 2 5.29016 5.02463 -6.11524 
64 2 4.72564 3.34301 -6.4962 
65 2 6.31572 -4.40746 1.09484 
66 2 -5.69365 4.71259 -5.06176 
67 2 6.31665 -1.53032 2.3044 
68 2 3.64424 5.37395 5.47686 
69 2 -1.40519 0.257543 -2.73641 
70 2 -4.69286 -3.052 -6.21161 
71 2 -4.15028 1.15462 -2.56536 
72 2 3.23541 0.37314 -6.387 
73 2 -5.39434 4.52163 5.69653 
74 2 -5.36733 -3.13451 -0.324921 
75 2 -0.412329 3.87652 6.62176 
76 2 4.72618 0.183348 -2.12511 
77 2 -6.1393 -1.27768 4.06885 
78 2 5.59143 -1.8124 3.18307 
79 2 -0.944531 -3.73405 -1.21249 
80 2 6.73831 5.23501 3.88838 
81 2 6.64963 5.48825 -2.73073 
82 2 0.056493 -4.28886 4.04266 
83 2 -4.82706 0.334562 -5.35792 
84 2 -2.71053 -5.00921 -2.14376 
85 2 6.13823 6.73024 0.693604 
86 2 4.57682 -0.0108054 -4.09396 
87 2 5.69588 4.57234 6.63548 
88 2 -4.15003 -5.84492 4.69154 
89 2 -4.30474 6.36876 3.01662 
90 2 1.87261 -1.33228 -5.85688 
91 2 -1.81994 4.34405 -1.08886 
92 2 4.28477 -2.5487 2.31041 
93 2 4.13922 -2.39165 0.231609 
94 2 0.481938 4.13793 4.13318 
95 2 -4.73184 -3.78189 0.273758 
96 2 -5.98298 -5.81876 -0.0769349 
97 2 -1.93791 -4.82449 -2.80114 
98 2 -1.51893 -3.05741 -4.56947 
99 2 -4.82838 -5.9128 2.98967 
100 2 0.679668 -1.61896 4.17721 
