ITEM: TIMESTEP
105000
ITEM: NUMBER OF ATOMS
100
ITEM: BOX BOUNDS pp pp pp
-6.83599 6.83599
-6.83599 6.83599
-6.83599 6.83599
ITEM: ATOMS id type x y z 
1 1 6.0631 -2.58807 -5.99123 
2 1 5.9738 -0.531393 2.88 
3 1 -0.738618 5.72928 -0.227141 
4 1 4.20155 5.19847 -4.84444 
5 1 4.06482 -5.42938 -6.37492 
6 1 -0.781385 6.59678 -2.75547 
7 1 5.94365 6.46817 2.92457 
8 1 -5.46711 4.63562 -4.1642 
9 1 6.12685 -5.40866 -2.23561 
10 1 4.34768 -2.12633 1.00263 
11 1 0.926538 -4.07991 6.6161 
12 1 2.55524 -4.80537 -3.39538 
13 1 1.40605 0.787168 0.350188 
14 1 2.52307 -6.55184 -5.30597 
15 1 0.406142 1.2012 0.346019 
16 1 -1.02934 -5.85003 0.743391 
17 1 -3.7627 -3.94589 -5.6848 
18 1 -5.78834 2.69694 4.74301 
19 1 3.87344 1.68852 -2.85115 
20 1 -6.43202 -1.49167 2.71036 
21 1 1.10933 6.43653 -2.98961 
22 1 2.08722 3.01513 -3.68429 
23 1 -6.16106 4.90015 -5.61263 
24 1 -0.365259 -4.07312 -6.59043 
25 1 2.8641 -2.18473 6.45579 
26 1 5.10779 -1.46288 6.35382 
27 1 -6.0164 2.61623 1.15341 
28 1 -4.3169 5.24008 4.45526 
29 1 -4.95517 -0.399122 -0.601289 
30 1 -4.26258 -2.43361 -3.48411 
31 1 -3.36648 -4.11166 -2.21775 
32 1 6.34666 2.06586 -4.42211 
33 1 4.93861 0.890062 -5.41298 
34 1 -5.90326 3.3293 -5.75757 
35 1 6.52372 5.18075 -2.67525 
36 1 1.231 1.4764 4.52692 
37 1 2.18642 -2.16271 -0.284077 
38 1 -2.81234 -5.41623 -5.97912 
39 1 -4.88604 -3.32099 -0.732135 
40 1 -3.96029 5.88575 2.01112 
41 1 1.07049 -3.31178 4.80117 
42 1 0.415632 -6.56848 -0.752801 
43 1 6.18477 6.78282 -0.622713 
44 1 -5.1315 -2.84294 6.5945 
45 1 5.29296 -5.35644 6.435 
46 1 -0.678232 0.0446019 -4.01874 
47 1 -1.36465 3.5207 -2.52645 
48 1 1.95466 -3.80435 6.44039 
49 1 4.90453 -6.0959 3.91349 
50 1 3.35311 2.42535 -4.98146 
51 2 4.38317 1.85475 -0.237735 
52 2 -5.32246 1.71217 -4.83827 
53 2 -3.33343 -1.29163 5.61967 
54 2 -1.45945 -0.683981 -0.0371334 
55 2 -0.992338 -1.70551 5.33982 
56 2 5.16986 -1.84498 -1.88855 
57 2 3.34798 -3.15305 0.229254 
58 2 -0.245787 -0.506381 -0.152297 
59 2 3.59179 6.1995 -0.291056 
60 2 4.67419 1.06243 6.48709 
61 2 4.86505 6.36451 -4.23386 
62 2 4.15994 6.10553 0.848238 
63 2 4.82496 4.11016 -5.14696 
64 2 0.335364 5.16459 4.63521 
65 2 6.09009 -3.60189 1.46589 
66 2 -3.95563 3.64791 -5.2996 
67 2 -5.49054 -3.97712 0.723471 
68 2 4.61337 -5.16747 5.46729 
69 2 -3.00855 2.5534 -4.85434 
70 2 -3.00351 -4.26357 6.33648 
71 2 -3.02702 3.01206 -0.829935 
72 2 2.13024 1.26835 -6.79438 
73 2 -2.71896 3.88945 -6.13574 
74 2 -3.86453 -5.08292 1.6711 
75 2 -1.75338 6.62748 -5.83346 
76 2 3.21509 3.00186 1.85934 
77 2 -5.85544 -1.10004 5.43611 
78 2 5.58717 -2.82759 3.79499 
79 2 1.41305 -3.89926 -1.62749 
80 2 -5.02129 3.81356 2.14892 
81 2 -6.71693 4.08799 -4.10657 
82 2 1.01818 -5.45447 1.01571 
83 2 -5.33006 0.416733 6.12253 
84 2 -3.03765 -4.0544 2.6909 
85 2 -5.63044 5.19231 -0.534536 
86 2 3.46338 -0.844135 -3.31007 
87 2 3.67553 1.79787 6.40659 
88 2 -3.89012 6.09505 5.08864 
89 2 -5.62009 -5.92828 1.06869 
90 2 1.04655 -1.5981 -4.85694 
91 2 -5.09891 4.01281 -0.948156 
92 2 -6.05103 -5.21501 0.367985 
93 2 3.19049 0.252905 0.236667 
94 2 -0.705316 6.03159 3.61617 
95 2 -2.85522 -1.87828 -1.02169 
96 2 -4.23145 6.68386 -1.36461 
97 2 1.45084 -5.966 -3.67607 
98 2 -1.68566 -3.72559 6.52446 
99 2 -4.29249 -2.14394 4.82033 
100 2 0.0217379 -5.29794 3.27022 
