ITEM: TIMESTEP
150000
ITEM: NUMBER OF ATOMS
100
ITEM: BOX BOUNDS pp pp pp
-6.83599 6.83599
-6.83599 6.83599
-6.83599 6.83599
ITEM: ATOMS id type x y z 
1 1 -6.05203 -4.98056 -3.6333 
2 1 5.42802 -0.0570876 2.71797 
3 1 -0.187764 3.24859 -2.7001 
4 1 5.11555 5.94766 -5.1582 
5 1 0.976448 -2.71747 -3.60334 
6 1 -2.76908 -6.55235 -4.65635 
7 1 1.10713 -4.95399 2.95131 
8 1 4.48444 5.93833 4.58372 
9 1 -6.52139 -6.67097 -0.696935 
10 1 6.3227 -2.88618 -0.812733 
11 1 1.94649 -1.72265 5.69595 
12 1 -1.46327 -3.83585 -4.27813 
13 1 2.19085 -1.37952 -1.58156 
14 1 2.30244 -4.99909 -4.23627 
15 1 -1.25103 0.195109 -0.518077 
16 1 -1.35719 5.37494 -1.90785 
17 1 -4.66709 -2.23612 -5.5278 
18 1 -5.24488 0.88076 4.28194 
19 1 5.05574 0.574948 -3.54718 
20 1 -4.50164 -4.50658 3.83287 
21 1 3.5196 -5.41123 -5.10823 
22 1 2.18782 3.47543 6.48155 
23 1 5.84868 -6.11168 -5.69914 
24 1 1.6341 -4.02474 -4.59822 
25 1 5.41401 -2.32714 4.37103 
26 1 6.68215 1.06107 6.29327 
27 1 5.80768 3.27318 -1.27079 
28 1 -1.93773 5.12848 3.90366 
29 1 -2.32402 -2.90264 -3.57068 
30 1 -3.44401 -1.83429 -1.2625 
31 1 -2.69781 -3.8318 -1.92652 
32 1 6.69699 2.93661 -6.05363 
33 1 -5.61111 2.19539 5.94347 
34 1 -3.04131 0.782555 -5.29355 
35 1 -5.38095 -6.22714 -5.89085 
36 1 1.06336 2.71295 6.30076 
37 1 1.14189 -2.08619 -0.238786 
38 1 -2.07336 -2.55293 6.57828 
39 1 6.62725 -5.16912 -2.17367 
40 1 -3.86527 2.81954 1.72977 
41 1 2.80828 -3.87365 1.72315 
42 1 -1.47575 6.51857 -1.84877 
43 1 5.28296 -2.73492 2.31207 
44 1 -3.46125 -4.48778 -6.72608 
45 1 6.62409 -3.63686 -6.7747 
46 1 -1.29693 1.51574 6.63305 
47 1 0.0314865 0.516258 -0.42625 
48 1 1.5358 -2.82302 4.36231 
49 1 -5.33504 -5.20034 1.90082 
50 1 3.88692 2.79163 5.02057 
51 2 5.51846 2.29336 -0.843058 
52 2 5.30823 3.2878 -2.24987 
53 2 -2.49497 1.19122 -6.36653 
54 2 -4.29998 -1.05238 3.29533 
55 2 -2.65581 -3.0225 4.48285 
56 2 6.33114 1.49 -3.88338 
57 2 3.51694 6.71526 -2.71067 
58 2 1.08737 -2.32667 -2.46774 
59 2 3.16854 -6.80643 1.0458 
60 2 4.59197 1.15798 -5.49211 
61 2 3.778 -5.83872 -3.38908 
62 2 4.80409 3.46285 4.05656 
63 2 4.72581 5.22098 -6.22002 
64 2 5.25251 3.32018 -6.45956 
65 2 -6.59632 -4.38551 0.971806 
66 2 -5.1877 5.17809 -5.33642 
67 2 6.08207 -1.57321 2.2366 
68 2 3.76246 4.69528 5.41734 
69 2 -1.58327 -0.185913 -3.2774 
70 2 -4.79591 -3.44035 -5.97424 
71 2 -3.5546 0.396411 -1.86231 
72 2 3.06405 -0.101281 -6.4402 
73 2 -5.8357 4.30716 4.96094 
74 2 -6.47513 -3.06922 -0.303875 
75 2 -0.379465 4.0968 -6.59736 
76 2 4.93045 -0.499531 -2.58452 
77 2 -6.44289 -1.59889 3.4624 
78 2 5.60568 -1.42726 3.72175 
79 2 -1.63459 -3.73512 -1.70832 
80 2 -6.64917 5.33537 4.58404 
81 2 5.96095 6.31098 -2.19999 
82 2 0.0637118 -3.57482 4.33042 
83 2 -4.11868 0.291002 -5.84235 
84 2 -2.8011 -5.96713 -3.25384 
85 2 5.75409 6.52125 0.385736 
86 2 4.2858 -0.173648 -3.86013 
87 2 6.14027 4.56676 5.96777 
88 2 -4.03571 -6.04654 4.41254 
89 2 -3.79717 6.26631 3.29763 
90 2 1.45657 -1.08686 -5.88868 
91 2 -2.06258 4.82277 -1.17989 
92 2 4.08994 -2.57302 1.82871 
93 2 4.14261 -2.54952 0.371062 
94 2 0.705054 4.38582 4.4241 
95 2 -4.32961 -3.99714 0.578807 
96 2 -5.43494 -6.08727 0.114527 
97 2 -2.01569 -4.58817 -3.5689 
98 2 -2.19082 -3.23137 -4.84341 
99 2 -4.71348 -6.31681 3.08156 
100 2 0.796537 -0.982701 4.58537 
