ITEM: TIMESTEP
151000
ITEM: NUMBER OF ATOMS
100
ITEM: BOX BOUNDS pp pp pp
-6.83599 6.83599
-6.83599 6.83599
-6.83599 6.83599
ITEM: ATOMS id type x y z 
1 1 -5.90276 -5.0487 -3.6751 
2 1 5.55463 0.00453039 2.73537 
3 1 -0.211997 3.23451 -2.64483 
4 1 5.10736 6.06601 -5.19151 
5 1 0.884868 -2.70076 -3.59616 
6 1 -2.81468 -6.55896 -4.67021 
7 1 1.05764 -4.97361 2.97198 
8 1 4.45153 5.8977 4.41207 
9 1 -6.59542 -6.63491 -0.669969 
10 1 6.27698 -2.85463 -0.963284 
11 1 1.91246 -1.69448 5.69686 
12 1 -1.53947 -3.7775 -4.31678 
13 1 2.14797 -1.39608 -1.56167 
14 1 2.27804 -5.01952 -4.22563 
15 1 -1.28788 0.128931 -0.556016 
16 1 -1.34924 5.36281 -1.97164 
17 1 -4.66178 -2.29391 -5.59099 
18 1 -5.19484 0.854361 4.24393 
19 1 4.97136 0.622711 -3.56164 
20 1 -4.55753 -4.37985 3.81758 
21 1 3.52654 -5.32181 -5.12572 
22 1 2.3343 3.4459 6.46526 
23 1 5.83415 -6.09901 -5.69664 
24 1 1.55831 -3.93374 -4.5606 
25 1 5.36548 -2.42499 4.39761 
26 1 6.75743 1.05125 6.3316 
27 1 5.87984 3.21239 -1.29694 
28 1 -1.91172 5.17323 3.96229 
29 1 -2.36118 -3.0325 -3.68882 
30 1 -3.49088 -1.79839 -1.20379 
31 1 -2.6071 -3.90261 -2.04096 
32 1 6.69177 2.89539 -6.19938 
33 1 -5.6935 2.20415 5.93788 
34 1 -2.9332 0.72559 -5.25401 
35 1 -5.47085 -6.06292 -5.88975 
36 1 1.03381 2.69823 6.37286 
37 1 1.18593 -2.04379 -0.207306 
38 1 -2.09108 -2.56348 6.57766 
39 1 6.64602 -5.22595 -2.18704 
40 1 -3.93739 2.79281 1.74503 
41 1 2.73669 -3.93249 1.77901 
42 1 -1.54134 6.48368 -1.80574 
43 1 5.16054 -2.82461 2.35421 
44 1 -3.55072 -4.73516 -6.5921 
45 1 6.62289 -3.50238 -6.76829 
46 1 -1.36014 1.48043 6.6797 
47 1 0.119755 0.417922 -0.320648 
48 1 1.61105 -2.85292 4.3149 
49 1 -5.37424 -5.27798 1.89077 
50 1 3.91081 2.91888 4.94417 
51 2 5.5121 2.29121 -0.874635 
52 2 5.16915 3.36096 -2.29429 
53 2 -2.42994 1.16554 -6.34738 
54 2 -4.40066 -1.13948 3.36804 
55 2 -2.73703 -3.00522 4.35471 
56 2 6.3525 1.70494 -3.92047 
57 2 3.52195 6.71 -2.73555 
58 2 1.08232 -2.32806 -2.498 
59 2 3.11127 -6.79676 1.1063 
60 2 4.58703 1.15891 -5.42348 
61 2 3.80388 -5.81255 -3.35262 
62 2 4.72013 3.41855 4.12116 
63 2 4.67529 5.24148 -6.27984 
64 2 5.31944 3.31978 -6.45813 
65 2 -6.5876 -4.4429 0.953283 
66 2 -5.16174 5.21471 -5.39588 
67 2 6.03023 -1.49974 2.19415 
68 2 3.77448 4.65244 5.40309 
69 2 -1.59128 -0.258299 -3.34226 
70 2 -4.86929 -3.50046 -6.01277 
71 2 -3.46936 0.321844 -1.73311 
72 2 3.06647 -0.191244 -6.4477 
73 2 -5.88093 4.31917 4.87146 
74 2 -6.49988 -3.11 -0.296353 
75 2 -0.402686 4.133 -6.49717 
76 2 4.96735 -0.563925 -2.61907 
77 2 -6.47732 -1.61679 3.375 
78 2 5.60934 -1.33245 3.80242 
79 2 -1.56667 -3.78722 -1.83247 
80 2 -6.59036 5.37534 4.69768 
81 2 5.87316 6.4584 -2.11295 
82 2 0.0786087 -3.45806 4.41248 
83 2 -4.03992 0.353318 -5.85067 
84 2 -2.79942 -6.02573 -3.36573 
85 2 5.69854 6.50862 0.384593 
86 2 4.2854 -0.247127 -3.80247 
87 2 6.24113 4.57506 5.89902 
88 2 -3.95579 -6.13315 4.4109 
89 2 -3.71053 6.26864 3.25428 
90 2 1.41414 -1.03713 -5.83021 
91 2 -2.06716 4.80186 -1.27779 
92 2 4.03084 -2.54901 1.78716 
93 2 4.22897 -2.53926 0.361158 
94 2 0.658905 4.43525 4.51917 
95 2 -4.26776 -3.99574 0.651738 
96 2 -5.43174 -6.14629 0.167123 
97 2 -2.06916 -4.61568 -3.6211 
98 2 -2.2738 -3.16254 -4.88211 
99 2 -4.69654 -6.42197 3.13368 
100 2 0.854927 -0.879572 4.63301 
