ITEM: TIMESTEP
154000
ITEM: NUMBER OF ATOMS
100
ITEM: BOX BOUNDS pp pp pp
-6.83599 6.83599
-6.83599 6.83599
-6.83599 6.83599
ITEM: ATOMS id type x y z 
1 1 -5.62701 -5.33264 -3.72974 
2 1 5.88735 0.296419 2.71565 
3 1 -0.270606 3.21225 -2.55539 
4 1 5.03503 6.27893 -5.23044 
5 1 0.598995 -2.66791 -3.64449 
6 1 -2.90356 -6.7626 -4.65765 
7 1 0.951334 -5.07445 2.90997 
8 1 4.25083 5.86021 3.99153 
9 1 6.81271 -6.43511 -0.525249 
10 1 6.27558 -2.78659 -1.36779 
11 1 1.74937 -1.55049 5.68941 
12 1 -1.68026 -3.8909 -4.53571 
13 1 2.0143 -1.46796 -1.44295 
14 1 2.27311 -5.00127 -4.14071 
15 1 -1.30077 0.0427247 -0.57993 
16 1 -1.31286 5.23268 -2.22464 
17 1 -4.82544 -2.4822 -5.75512 
18 1 -4.92709 0.919526 4.07286 
19 1 4.67755 0.931055 -3.70176 
20 1 -4.61461 -4.04189 3.76717 
21 1 3.52907 -5.19001 -5.15103 
22 1 2.69116 3.3522 6.46725 
23 1 5.77442 -6.07863 -5.50909 
24 1 1.38403 -3.71837 -4.54746 
25 1 5.33007 -2.44774 4.45735 
26 1 -6.66995 1.01437 6.50145 
27 1 6.05439 3.08626 -1.50156 
28 1 -1.88495 5.12755 4.09089 
29 1 -2.49566 -3.30488 -3.87888 
30 1 -3.50476 -1.87413 -1.02322 
31 1 -2.585 -3.91595 -2.10884 
32 1 6.68111 2.84555 -6.6428 
33 1 -5.99761 2.24804 5.87658 
34 1 -2.55485 0.635133 -5.0051 
35 1 -5.49571 -5.48482 -5.85496 
36 1 0.848236 2.84082 6.5901 
37 1 1.16675 -1.97021 0.0125246 
38 1 -2.28559 -2.62878 6.76395 
39 1 6.73361 -5.25535 -2.22789 
40 1 -3.96188 2.65531 1.81548 
41 1 2.64666 -3.96339 1.99643 
42 1 -1.84506 6.52605 -1.80845 
43 1 4.95134 -2.95149 2.48737 
44 1 -3.93572 -5.32622 -6.40885 
45 1 6.51078 -3.07127 -6.76494 
46 1 -1.44168 1.3768 6.8174 
47 1 0.39142 0.0920291 -0.106351 
48 1 1.78658 -3.09012 4.19612 
49 1 -5.561 -5.52282 1.8302 
50 1 3.79677 3.17624 5.07553 
51 2 5.50439 2.21374 -0.719757 
52 2 4.8916 3.47012 -2.24141 
53 2 -2.42336 1.12282 -6.14475 
54 2 -4.72741 -1.28763 3.70961 
55 2 -2.92667 -3.0119 4.08013 
56 2 6.43319 2.25342 -4.00527 
57 2 3.75724 -6.81983 -2.85305 
58 2 1.05951 -2.21877 -2.50793 
59 2 3.06701 -6.74946 1.28516 
60 2 4.69006 1.16285 -5.30351 
61 2 3.82621 -5.64546 -3.26103 
62 2 4.44324 3.58705 4.0305 
63 2 4.57937 5.2847 -6.4001 
64 2 5.35564 3.58049 -6.2588 
65 2 -6.63958 -4.53667 0.975109 
66 2 -5.11864 5.34331 -5.61386 
67 2 6.0983 -1.30216 2.1896 
68 2 3.87673 4.4736 5.51409 
69 2 -1.71666 -0.479405 -3.56798 
70 2 -4.96992 -3.60503 -6.14859 
71 2 -3.15085 0.0630874 -1.35318 
72 2 2.95859 -0.395962 -6.41854 
73 2 -5.82204 4.36016 4.62961 
74 2 -6.51559 -3.18112 -0.193536 
75 2 -0.653935 4.12675 -6.31351 
76 2 4.93764 -0.731568 -2.90429 
77 2 -6.55947 -1.57036 3.11088 
78 2 5.57595 -1.15002 3.98827 
79 2 -1.26596 -3.75513 -2.25873 
80 2 -6.46852 5.48428 5.05486 
81 2 5.69696 6.82372 -1.91649 
82 2 0.1796 -3.15806 4.62231 
83 2 -3.84969 0.552025 -5.82505 
84 2 -2.75957 -6.19332 -3.77024 
85 2 5.6698 6.32522 0.435776 
86 2 4.15718 -0.479828 -3.63962 
87 2 6.37873 4.68068 5.6148 
88 2 -3.67047 -6.37957 4.23726 
89 2 -3.41456 6.119 3.13314 
90 2 1.22373 -0.862577 -5.63461 
91 2 -2.07439 4.8213 -1.57367 
92 2 3.97139 -2.56444 1.5512 
93 2 4.31669 -2.4809 0.280916 
94 2 0.525447 4.38777 4.72857 
95 2 -4.14747 -3.86704 0.614497 
96 2 -5.43157 -6.28987 0.0941338 
97 2 -2.15398 -4.73863 -3.72599 
98 2 -2.49618 -3.00862 -5.01776 
99 2 -4.63799 -6.75603 3.21777 
100 2 1.16301 -0.49584 4.86075 
