ITEM: TIMESTEP
155000
ITEM: NUMBER OF ATOMS
100
ITEM: BOX BOUNDS pp pp pp
-6.83599 6.83599
-6.83599 6.83599
-6.83599 6.83599
ITEM: ATOMS id type x y z 
1 1 -5.53046 -5.48007 -3.74669 
2 1 5.99315 0.436187 2.68799 
3 1 -0.301901 3.15426 -2.55525 
4 1 5.06028 6.35305 -5.19688 
5 1 0.486396 -2.69196 -3.64304 
6 1 -2.91051 6.74378 -4.7565 
7 1 0.961385 -5.13198 2.85294 
8 1 4.19471 5.8254 3.89184 
9 1 6.6972 -6.36113 -0.447708 
10 1 6.24111 -2.77448 -1.50825 
11 1 1.70257 -1.47674 5.64758 
12 1 -1.5934 -3.93693 -4.58387 
13 1 1.95334 -1.50526 -1.35079 
14 1 2.25572 -5.03815 -4.12829 
15 1 -1.29369 0.0711212 -0.53787 
16 1 -1.2779 5.20542 -2.30744 
17 1 -4.83662 -2.52566 -5.86086 
18 1 -4.77858 0.986524 4.00209 
19 1 4.60441 0.941133 -3.75773 
20 1 -4.58279 -3.98932 3.72865 
21 1 3.49149 -5.17538 -5.14314 
22 1 2.79281 3.36467 6.44852 
23 1 5.79735 -6.07122 -5.52498 
24 1 1.35888 -3.67644 -4.53035 
25 1 5.32064 -2.468 4.4083 
26 1 -6.59258 0.994579 6.59212 
27 1 6.11249 3.04082 -1.5462 
28 1 -1.84881 5.14018 4.14664 
29 1 -2.56208 -3.35901 -3.89255 
30 1 -3.54038 -1.87481 -0.91365 
31 1 -2.56122 -3.88715 -2.13456 
32 1 6.61974 2.85141 -6.78577 
33 1 -6.0958 2.29693 5.90061 
34 1 -2.49487 0.622924 -4.87741 
35 1 -5.48163 -5.26407 -5.88495 
36 1 0.819394 2.94844 6.64383 
37 1 1.17336 -1.87354 0.0468932 
38 1 -2.29836 -2.63752 6.82797 
39 1 6.73488 -5.26858 -2.24123 
40 1 -3.93883 2.62789 1.89863 
41 1 2.6425 -3.97526 2.0348 
42 1 -1.93376 6.56054 -1.84726 
43 1 4.91226 -2.99723 2.58296 
44 1 -4.03229 -5.49477 -6.36617 
45 1 6.44647 -2.93544 -6.79462 
46 1 -1.3829 1.40904 6.78741 
47 1 0.460776 0.0188698 -0.0260723 
48 1 1.86314 -3.13448 4.19901 
49 1 -5.65135 -5.60114 1.78278 
50 1 3.82878 3.25443 5.19675 
51 2 5.51996 2.13399 -0.655677 
52 2 4.79547 3.52133 -2.18211 
53 2 -2.42601 1.05042 -6.10722 
54 2 -4.79662 -1.33183 3.79543 
55 2 -2.99006 -3.00716 4.02366 
56 2 6.44773 2.43037 -4.05162 
57 2 3.82253 6.81625 -2.82773 
58 2 1.10073 -2.17699 -2.5148 
59 2 3.04556 -6.69017 1.30512 
60 2 4.74881 1.11922 -5.34898 
61 2 3.85302 -5.51144 -3.25901 
62 2 4.38711 3.67819 3.93579 
63 2 4.54296 5.27178 -6.41582 
64 2 5.32642 3.66907 -6.18296 
65 2 -6.66699 -4.58835 1.00798 
66 2 -5.15046 5.43673 -5.61182 
67 2 6.1739 -1.30656 2.19545 
68 2 3.88329 4.37986 5.4753 
69 2 -1.76859 -0.507258 -3.60143 
70 2 -5.04698 -3.57317 -6.16642 
71 2 -3.14333 0.00935177 -1.19886 
72 2 2.93731 -0.414729 -6.40219 
73 2 -5.81026 4.39414 4.52871 
74 2 -6.46635 -3.17008 -0.146855 
75 2 -0.746083 4.085 -6.21784 
76 2 4.94253 -0.79169 -2.99745 
77 2 -6.57673 -1.57457 3.05593 
78 2 5.55418 -1.09975 4.08385 
79 2 -1.19182 -3.7201 -2.36922 
80 2 -6.40653 5.53384 5.1933 
81 2 5.6483 -6.72355 -1.86818 
82 2 0.209793 -3.046 4.68776 
83 2 -3.71603 0.633891 -5.75578 
84 2 -2.72717 -6.18496 -3.71269 
85 2 5.7053 6.2426 0.455398 
86 2 4.09569 -0.483338 -3.58758 
87 2 6.44588 4.70869 5.54222 
88 2 -3.5636 -6.46575 4.20957 
89 2 -3.39519 6.07491 3.09533 
90 2 1.15732 -0.80006 -5.55411 
91 2 -2.0865 4.79524 -1.66754 
92 2 3.95332 -2.56881 1.50106 
93 2 4.36661 -2.4962 0.315271 
94 2 0.474129 4.36409 4.7963 
95 2 -4.11349 -3.80462 0.601184 
96 2 -5.49199 -6.33984 0.123859 
97 2 -2.16712 -4.7744 -3.77938 
98 2 -2.59654 -2.92923 -5.12783 
99 2 -4.64301 6.77955 3.24704 
100 2 1.29322 -0.378149 4.93173 
