ITEM: TIMESTEP
157000
ITEM: NUMBER OF ATOMS
100
ITEM: BOX BOUNDS pp pp pp
-6.83599 6.83599
-6.83599 6.83599
-6.83599 6.83599
ITEM: ATOMS id type x y z 
1 1 -5.3447 -5.72916 -3.63177 
2 1 6.19378 0.485996 2.58132 
3 1 -0.209776 3.2008 -2.70196 
4 1 5.03483 6.43533 -5.1742 
5 1 0.279961 -2.77765 -3.64421 
6 1 -2.92187 6.35813 -5.02787 
7 1 0.934527 -5.1216 2.64139 
8 1 4.1971 5.7664 3.88143 
9 1 6.52052 -6.10822 -0.311004 
10 1 6.20594 -2.72986 -1.67493 
11 1 1.56468 -1.31997 5.54957 
12 1 -1.52243 -3.98917 -4.77408 
13 1 1.85478 -1.59371 -1.22134 
14 1 2.27604 -5.06092 -3.94968 
15 1 -1.23489 0.102469 -0.5547 
16 1 -1.32427 5.17892 -2.4755 
17 1 -4.90756 -2.53445 -5.95416 
18 1 -4.63036 1.1122 3.98277 
19 1 4.40965 0.91571 -3.91314 
20 1 -4.60016 -4.0507 3.55363 
21 1 3.39262 -5.10325 -5.16246 
22 1 2.95937 3.46898 6.38662 
23 1 5.78967 -6.00595 -5.52841 
24 1 1.31253 -3.63471 -4.55594 
25 1 5.3478 -2.49503 4.3208 
26 1 -6.36617 1.06199 6.71589 
27 1 6.38986 3.02767 -1.54987 
28 1 -1.92563 5.15213 4.23848 
29 1 -2.58926 -3.44927 -3.96873 
30 1 -3.56921 -1.96409 -0.790447 
31 1 -2.4027 -3.93175 -2.17285 
32 1 6.47269 2.84977 6.65748 
33 1 -6.19545 2.31676 5.93573 
34 1 -2.26104 0.503814 -4.62921 
35 1 -5.57946 -4.89849 -5.99701 
36 1 0.926836 3.02233 6.70223 
37 1 1.1527 -1.66633 0.223903 
38 1 -2.31039 -2.76834 -6.75315 
39 1 6.83417 -5.3234 -2.41627 
40 1 -3.92544 2.61023 2.05538 
41 1 2.67431 -3.96797 2.21813 
42 1 -2.03521 6.7951 -1.92341 
43 1 4.80828 -3.12164 2.86089 
44 1 -4.27245 -5.78636 -6.27115 
45 1 6.29262 -2.68677 6.79783 
46 1 -1.28048 1.359 6.7308 
47 1 0.521962 -0.177001 0.0185226 
48 1 2.02433 -3.2494 4.27458 
49 1 -5.65143 -5.74336 1.63978 
50 1 3.95118 3.23166 5.37731 
51 2 5.51709 1.97261 -0.51369 
52 2 4.55759 3.57219 -2.08605 
53 2 -2.43749 0.810234 -6.06144 
54 2 -4.79073 -1.40939 3.85609 
55 2 -3.09686 -2.89184 3.8714 
56 2 6.43876 2.90033 -4.18226 
57 2 3.89614 6.63695 -2.83196 
58 2 1.28123 -2.01824 -2.55261 
59 2 2.95809 -6.49698 1.34179 
60 2 4.79836 1.0077 -5.42832 
61 2 3.95476 -5.33201 -3.16145 
62 2 4.36967 3.61695 3.90358 
63 2 4.39561 5.30092 -6.46475 
64 2 5.27547 3.78469 -6.05692 
65 2 -6.76597 -4.65565 1.0236 
66 2 -5.21045 5.69613 -5.59251 
67 2 6.28996 -1.34424 2.17012 
68 2 3.84936 4.39763 5.46767 
69 2 -1.80086 -0.659171 -3.71327 
70 2 -5.18879 -3.60388 -6.21974 
71 2 -3.12122 -0.0374292 -0.967757 
72 2 2.81587 -0.454646 -6.42643 
73 2 -5.82482 4.4639 4.43513 
74 2 -6.42397 -3.13568 -0.0888072 
75 2 -0.894081 3.92566 -6.10324 
76 2 5.02903 -0.933355 -3.11247 
77 2 -6.59212 -1.51716 2.98065 
78 2 5.56632 -0.921201 4.20335 
79 2 -1.10252 -3.68472 -2.58855 
80 2 -6.17687 5.53791 5.43491 
81 2 5.58821 -6.52079 -1.70015 
82 2 0.175572 -2.90034 4.82906 
83 2 -3.56326 0.65747 -5.68518 
84 2 -2.61631 -6.17414 -3.65046 
85 2 5.83209 6.05658 0.456818 
86 2 3.88389 -0.444552 -3.64866 
87 2 6.6962 4.65629 5.47677 
88 2 -3.44449 -6.68291 4.17246 
89 2 -3.30482 5.94978 3.09917 
90 2 1.02454 -0.769943 -5.32004 
91 2 -2.15089 4.78267 -1.87046 
92 2 3.99165 -2.61548 1.41582 
93 2 4.47454 -2.55509 0.334121 
94 2 0.375934 4.41449 4.92691 
95 2 -4.08452 -3.67904 0.54107 
96 2 -5.70094 -6.43747 0.315411 
97 2 -2.08556 -4.88408 -3.84969 
98 2 -2.63216 -2.67683 -5.30462 
99 2 -4.69583 6.50228 3.30594 
100 2 1.56016 -0.129476 5.07573 
