ITEM: TIMESTEP
158000
ITEM: NUMBER OF ATOMS
100
ITEM: BOX BOUNDS pp pp pp
-6.83599 6.83599
-6.83599 6.83599
-6.83599 6.83599
ITEM: ATOMS id type x y z 
1 1 -5.28844 -5.82805 -3.54649 
2 1 6.24378 0.518821 2.56102 
3 1 -0.108416 3.23104 -2.79396 
4 1 4.98164 6.50073 -5.15981 
5 1 0.186787 -2.82501 -3.67711 
6 1 -2.91048 6.15069 -5.13034 
7 1 0.89117 -5.12318 2.60889 
8 1 4.21637 5.74212 3.90554 
9 1 6.45673 -6.02007 -0.253098 
10 1 6.15476 -2.70433 -1.72891 
11 1 1.49187 -1.2193 5.48369 
12 1 -1.49637 -4.02403 -4.85308 
13 1 1.77711 -1.6736 -1.1294 
14 1 2.27784 -5.12959 -3.83942 
15 1 -1.18278 0.0713183 -0.516458 
16 1 -1.34449 5.2094 -2.64465 
17 1 -4.94225 -2.5378 -6.0374 
18 1 -4.52807 1.19505 4.01101 
19 1 4.28531 0.930688 -3.97323 
20 1 -4.57392 -4.07409 3.45832 
21 1 3.28759 -5.04222 -5.20018 
22 1 3.03155 3.52042 6.3959 
23 1 5.79729 -5.98737 -5.56593 
24 1 1.28816 -3.67366 -4.57162 
25 1 5.3661 -2.53397 4.25735 
26 1 -6.27637 1.07991 6.75448 
27 1 6.52318 3.00263 -1.5258 
28 1 -1.95278 5.21979 4.34539 
29 1 -2.57877 -3.5059 -4.0161 
30 1 -3.57931 -2.03398 -0.749941 
31 1 -2.33076 -3.98133 -2.22396 
32 1 6.36801 2.80821 6.52895 
33 1 -6.1459 2.3696 5.9755 
34 1 -2.05819 0.446078 -4.53873 
35 1 -5.59517 -4.75492 -6.01775 
36 1 0.975141 3.01545 6.74934 
37 1 1.14145 -1.57683 0.262781 
38 1 -2.27994 -2.82954 -6.65956 
39 1 -6.79275 -5.31278 -2.45394 
40 1 -3.94099 2.57073 2.08703 
41 1 2.6441 -3.91925 2.28676 
42 1 -2.07553 -6.77839 -1.99687 
43 1 4.64781 -3.14697 3.01017 
44 1 -4.43092 -5.93512 -6.18881 
45 1 6.2217 -2.58111 6.76363 
46 1 -1.25939 1.28219 6.70341 
47 1 0.549364 -0.255535 -0.0177294 
48 1 2.05745 -3.2681 4.24868 
49 1 -5.63512 -5.84889 1.58435 
50 1 3.99253 3.23088 5.48064 
51 2 5.47333 1.91796 -0.500625 
52 2 4.4788 3.50696 -2.01848 
53 2 -2.40126 0.626196 -5.99154 
54 2 -4.77975 -1.48161 3.87296 
55 2 -3.12044 -2.84713 3.77944 
56 2 6.40102 3.15041 -4.23321 
57 2 3.94135 6.54386 -2.84791 
58 2 1.36099 -1.93906 -2.58864 
59 2 2.90967 -6.36034 1.27411 
60 2 4.82518 0.898342 -5.45127 
61 2 4.00599 -5.25203 -3.12089 
62 2 4.40497 3.59506 3.8907 
63 2 4.31893 5.32492 -6.4821 
64 2 5.30366 3.83464 -6.01142 
65 2 -6.81439 -4.69482 0.991531 
66 2 -5.23611 5.86813 -5.5651 
67 2 6.35441 -1.36491 2.13513 
68 2 3.83038 4.42159 5.48584 
69 2 -1.82619 -0.69954 -3.70651 
70 2 -5.21873 -3.58434 -6.29735 
71 2 -3.10106 -0.0614719 -0.858239 
72 2 2.75451 -0.518289 -6.43255 
73 2 -5.84241 4.50341 4.39863 
74 2 -6.4507 -3.10654 -0.124185 
75 2 -0.971204 3.83627 -6.04446 
76 2 5.08482 -0.949929 -3.2001 
77 2 -6.62065 -1.46988 2.96921 
78 2 5.58474 -0.840474 4.28126 
79 2 -1.05575 -3.71377 -2.6662 
80 2 -6.06908 5.58704 5.54439 
81 2 5.56096 -6.42997 -1.61475 
82 2 0.112472 -2.88825 4.93193 
83 2 -3.51384 0.681994 -5.6429 
84 2 -2.56584 -6.13119 -3.64353 
85 2 5.93464 5.95443 0.469339 
86 2 3.84368 -0.413178 -3.69617 
87 2 6.80687 4.60186 5.37882 
88 2 -3.42636 -6.79847 4.1513 
89 2 -3.20838 5.84388 3.13871 
90 2 0.956387 -0.782231 -5.20259 
91 2 -2.21156 4.7676 -1.98264 
92 2 4.0369 -2.63985 1.35774 
93 2 4.47728 -2.54813 0.293105 
94 2 0.415022 4.41026 5.00061 
95 2 -4.11217 -3.59426 0.489367 
96 2 -5.81376 -6.44342 0.387683 
97 2 -2.0379 -4.94831 -3.90557 
98 2 -2.63787 -2.63914 -5.39066 
99 2 -4.72067 6.41023 3.35009 
100 2 1.671 0.0212623 5.12248 
