ITEM: TIMESTEP
161000
ITEM: NUMBER OF ATOMS
100
ITEM: BOX BOUNDS pp pp pp
-6.83599 6.83599
-6.83599 6.83599
-6.83599 6.83599
ITEM: ATOMS id type x y z 
1 1 -5.04525 -6.20381 -3.41658 
2 1 6.2476 0.47727 2.13933 
3 1 0.303064 3.40172 -2.99381 
4 1 4.87432 6.62016 -4.95331 
5 1 -0.0864666 -2.9283 -3.69636 
6 1 -3.0444 5.64419 -5.39966 
7 1 0.759548 -5.0252 2.68347 
8 1 4.18533 5.74434 4.07999 
9 1 6.31675 -5.80676 -0.107954 
10 1 5.93275 -2.57749 -1.70311 
11 1 1.31745 -0.815034 5.30761 
12 1 -1.52899 -4.21043 -5.01738 
13 1 1.69076 -1.83234 -1.00851 
14 1 2.31908 -5.28581 -3.49769 
15 1 -1.13056 0.0926496 -0.550824 
16 1 -1.46697 5.28747 -3.19611 
17 1 -4.97986 -2.40707 -6.28064 
18 1 -4.33183 1.43724 4.02153 
19 1 4.02914 1.16547 -4.12325 
20 1 -4.56988 -4.17655 3.15204 
21 1 2.73193 -4.78658 -5.37955 
22 1 3.2594 3.57962 6.22547 
23 1 5.77323 -5.87016 -5.4706 
24 1 1.30793 -3.96048 -4.55787 
25 1 5.47707 -2.72633 4.1394 
26 1 -6.12151 0.882977 -6.78475 
27 1 -6.73878 2.92121 -1.71477 
28 1 -2.18847 5.30499 4.65717 
29 1 -2.56225 -3.52099 -4.14353 
30 1 -3.65184 -2.28369 -0.646773 
31 1 -2.07836 -3.95865 -2.44525 
32 1 6.20701 2.704 6.29775 
33 1 -6.19461 2.47305 6.09714 
34 1 -1.47809 0.252665 -4.52745 
35 1 -5.67259 -4.45447 -6.01811 
36 1 1.03091 2.95143 6.81364 
37 1 1.00899 -1.47907 0.505947 
38 1 -2.29304 -3.01263 -6.38664 
39 1 -6.66875 -5.30778 -2.54836 
40 1 -3.86107 2.3145 2.05928 
41 1 2.4569 -3.88881 2.47993 
42 1 -2.01148 -6.42625 -2.09916 
43 1 4.36766 -3.1339 3.2515 
44 1 -4.91771 -6.32775 -5.94245 
45 1 5.93381 -2.39919 6.79617 
46 1 -1.12793 0.969389 6.57016 
47 1 0.58196 -0.234712 -0.0807143 
48 1 2.17373 -3.36157 4.2782 
49 1 -5.51969 -6.15051 1.5349 
50 1 4.12825 3.2327 5.7234 
51 2 5.42422 1.69136 -0.482464 
52 2 4.36048 3.26283 -1.88442 
53 2 -2.40177 0.142997 -5.81224 
54 2 -4.86396 -1.72185 3.97923 
55 2 -3.13554 -2.77685 3.64574 
56 2 6.32604 3.67213 -4.43436 
57 2 4.14357 6.3459 -2.86914 
58 2 1.59959 -1.73188 -2.64475 
59 2 2.7177 -6.0095 1.1074 
60 2 4.97009 0.450111 -5.62662 
61 2 4.08193 -4.99072 -2.93061 
62 2 4.5967 3.4418 3.8231 
63 2 4.24381 5.29562 -6.43195 
64 2 5.3268 4.01098 -5.94574 
65 2 6.69548 -4.76769 0.935794 
66 2 -5.40466 6.24273 -5.47295 
67 2 6.4286 -1.45072 1.89887 
68 2 3.70575 4.52834 5.43009 
69 2 -1.97541 -0.995712 -3.45177 
70 2 -5.53528 -3.48238 -6.54735 
71 2 -2.96428 -0.246505 -0.566512 
72 2 2.63039 -0.775785 -6.58406 
73 2 -5.88114 4.65326 4.2475 
74 2 -6.44517 -3.18279 -0.225041 
75 2 -1.38612 3.55651 -5.95916 
76 2 5.26379 -0.935651 -3.47714 
77 2 -6.80019 -1.34779 3.02101 
78 2 5.78073 -0.719954 4.32841 
79 2 -0.901796 -3.87101 -2.82347 
80 2 -5.76749 5.83429 5.85546 
81 2 5.48695 -6.09542 -1.42904 
82 2 0.0116857 -2.84102 5.20862 
83 2 -3.32712 0.720434 -5.52994 
84 2 -2.41828 -6.06519 -3.5316 
85 2 6.21765 5.8494 0.644302 
86 2 3.67803 -0.439397 -3.70402 
87 2 -6.49177 4.55996 5.09187 
88 2 -3.4823 6.58032 4.1613 
89 2 -3.00842 5.48894 3.29217 
90 2 0.799766 -0.713782 -4.83123 
91 2 -2.2834 4.64316 -2.37942 
92 2 4.08225 -2.61828 1.20967 
93 2 4.44031 -2.65377 0.00748717 
94 2 0.458524 4.37536 5.29847 
95 2 -4.1813 -3.32782 0.434176 
96 2 -6.19381 -6.59962 0.41366 
97 2 -1.8369 -5.25292 -4.20262 
98 2 -3.00184 -2.5916 -5.57676 
99 2 -4.76027 6.11536 3.52098 
100 2 2.00878 0.434594 5.23324 
