ITEM: TIMESTEP
164000
ITEM: NUMBER OF ATOMS
100
ITEM: BOX BOUNDS pp pp pp
-6.83599 6.83599
-6.83599 6.83599
-6.83599 6.83599
ITEM: ATOMS id type x y z 
1 1 -4.79457 -6.61228 -3.45037 
2 1 6.08163 0.486904 1.72492 
3 1 0.712358 3.59226 -3.01826 
4 1 4.94197 6.54823 -4.87787 
5 1 -0.263828 -2.96198 -3.73709 
6 1 -3.34879 5.26935 -5.52582 
7 1 0.461591 -4.8913 2.70838 
8 1 4.25259 5.67397 4.2797 
9 1 6.09441 -5.50736 0.0251272 
10 1 5.77041 -2.45113 -1.68353 
11 1 1.16743 -0.49759 5.10167 
12 1 -1.58851 -4.40607 -5.1525 
13 1 1.50251 -1.95569 -0.923279 
14 1 2.47539 -5.29935 -3.08864 
15 1 -1.09544 0.0513634 -0.680106 
16 1 -1.53724 5.26355 -3.6164 
17 1 -4.90779 -2.03985 -6.37187 
18 1 -4.25233 1.43689 4.06885 
19 1 3.99041 1.41732 -4.14004 
20 1 -4.61253 -4.29355 2.90805 
21 1 2.1216 -4.6172 -5.64108 
22 1 3.21248 3.61756 6.08581 
23 1 5.88117 -5.77134 -5.30888 
24 1 1.16251 -4.40122 -4.38721 
25 1 5.52234 -3.08613 4.0658 
26 1 -6.06888 0.891982 -6.77776 
27 1 -6.35807 2.75561 -1.82878 
28 1 -2.31877 5.26667 4.72786 
29 1 -2.65072 -3.5239 -4.43199 
30 1 -3.6518 -2.57768 -0.489797 
31 1 -1.81378 -3.94378 -2.72864 
32 1 6.16853 2.61199 6.16028 
33 1 -6.37281 2.56119 6.13313 
34 1 -0.870268 0.152088 -4.51497 
35 1 -5.70824 -4.35496 -5.88602 
36 1 1.11774 3.01394 6.7874 
37 1 0.747694 -1.47386 0.886965 
38 1 -2.28793 -3.18337 -6.2014 
39 1 -6.71739 -5.21621 -2.62412 
40 1 -3.84121 1.98067 2.19431 
41 1 2.31127 -3.85732 2.72529 
42 1 -1.81139 -6.03054 -2.25832 
43 1 4.19615 -3.12413 3.12242 
44 1 -5.22944 -6.42828 -5.78251 
45 1 5.72464 -2.16579 6.7733 
46 1 -1.01329 0.61671 6.39475 
47 1 0.519928 -0.121447 0.0130959 
48 1 2.2867 -3.34117 4.52487 
49 1 -5.32426 -6.27105 1.589 
50 1 4.41427 3.18544 5.66045 
51 2 5.3664 1.40041 -0.420448 
52 2 4.1543 2.90004 -1.7702 
53 2 -2.19444 -0.320651 -5.74505 
54 2 -4.94065 -1.65361 4.088 
55 2 -2.98073 -2.8427 3.60753 
56 2 6.21791 3.96779 -4.59685 
57 2 4.22508 6.28077 -2.8715 
58 2 1.84234 -1.65878 -2.69708 
59 2 2.55237 -5.82916 0.946262 
60 2 5.08126 0.0613589 -5.76235 
61 2 4.07205 -4.8522 -2.54116 
62 2 4.90304 3.34294 3.86773 
63 2 4.13142 5.30661 -6.59346 
64 2 5.32114 4.08464 -5.89287 
65 2 6.51053 -4.84328 0.830462 
66 2 -5.79805 6.38362 -5.35515 
67 2 6.31637 -1.62437 1.72343 
68 2 3.44402 4.57221 5.29819 
69 2 -1.88531 -1.33335 -3.19533 
70 2 -5.79229 -3.39305 6.74747 
71 2 -2.67742 -0.587079 -0.508348 
72 2 2.65617 -1.11244 -6.80261 
73 2 -5.70765 4.63139 3.94594 
74 2 -6.24877 -3.4157 -0.233271 
75 2 -1.74798 3.24969 -5.85926 
76 2 5.33637 -0.883895 -3.57547 
77 2 6.76087 -1.24669 3.28339 
78 2 6.23791 -0.573073 4.11132 
79 2 -0.656656 -3.84396 -3.33662 
80 2 -5.65966 6.22377 6.04066 
81 2 5.07235 -5.66779 -1.18409 
82 2 -0.0510714 -2.71374 5.3185 
83 2 -3.47591 0.793585 -5.4423 
84 2 -2.55708 -5.95374 -3.49879 
85 2 6.46339 5.74442 0.768451 
86 2 3.47234 -0.329065 -3.64972 
87 2 -6.29061 4.66424 4.91441 
88 2 -3.65908 6.43815 4.225 
89 2 -2.89436 5.22558 3.27421 
90 2 0.677485 -0.482012 -4.48726 
91 2 -2.38182 4.35278 -2.79099 
92 2 3.93799 -2.69687 1.14124 
93 2 4.41027 -2.71506 -0.317749 
94 2 0.563469 4.36231 5.60752 
95 2 -4.32417 -3.16148 0.424536 
96 2 -6.3542 6.78473 0.230127 
97 2 -1.61645 -5.55043 -4.62572 
98 2 -3.72467 -2.62858 -5.67671 
99 2 -4.71816 5.7351 3.69182 
100 2 2.24114 0.792388 5.29143 
