ITEM: TIMESTEP
166000
ITEM: NUMBER OF ATOMS
100
ITEM: BOX BOUNDS pp pp pp
-6.83599 6.83599
-6.83599 6.83599
-6.83599 6.83599
ITEM: ATOMS id type x y z 
1 1 -4.612 -6.73909 -3.59889 
2 1 5.75871 0.481602 1.44408 
3 1 0.771749 3.50522 -3.15763 
4 1 4.97015 6.46551 -4.73464 
5 1 -0.40215 -2.93815 -4.01303 
6 1 -3.46495 5.05308 -5.59144 
7 1 0.226991 -4.83717 2.79994 
8 1 4.34258 5.64357 4.3137 
9 1 5.94058 -5.42062 0.00206366 
10 1 5.6585 -2.40804 -1.58026 
11 1 1.03105 -0.225283 4.84441 
12 1 -1.61248 -4.62357 -5.23945 
13 1 1.18729 -2.16356 -0.920717 
14 1 2.58275 -5.27065 -2.73821 
15 1 -0.977238 0.0586535 -0.875106 
16 1 -1.64238 5.29151 -3.91417 
17 1 -4.84659 -1.76106 -6.50204 
18 1 -4.26159 1.42804 4.00641 
19 1 3.86835 1.62291 -4.11692 
20 1 -4.63305 -4.30939 2.73183 
21 1 1.74183 -4.56981 -5.89433 
22 1 3.2125 3.70188 6.19503 
23 1 6.03278 -5.83173 -5.14344 
24 1 1.16158 -4.62644 -4.21199 
25 1 5.60332 -3.28799 3.99502 
26 1 -6.04261 1.02442 6.82899 
27 1 -6.22073 2.64228 -2.04871 
28 1 -2.30761 4.97263 4.80122 
29 1 -2.77407 -3.54776 -4.57108 
30 1 -3.5649 -2.83549 -0.249769 
31 1 -1.64966 -3.92982 -2.78738 
32 1 6.1413 2.53851 5.9905 
33 1 -6.39746 2.4627 6.14545 
34 1 -0.497481 0.0956955 -4.46873 
35 1 -5.66023 -4.1891 -5.91211 
36 1 1.19118 3.10338 6.80875 
37 1 0.708204 -1.51149 1.05115 
38 1 -2.39382 -3.36831 -6.16085 
39 1 -6.82686 -5.03395 -2.74744 
40 1 -3.80251 1.79275 2.32016 
41 1 2.22778 -3.89227 2.84771 
42 1 -1.67395 -5.84619 -2.40318 
43 1 4.13393 -3.11583 2.97566 
44 1 -5.31816 -6.32124 -5.80013 
45 1 5.67433 -1.95477 6.76804 
46 1 -1.04342 0.301354 6.31857 
47 1 0.56443 -0.0932263 -0.0199017 
48 1 2.3332 -3.28919 4.70805 
49 1 -5.15015 -6.27059 1.51428 
50 1 4.61176 3.09041 5.73749 
51 2 5.28448 1.1735 -0.442527 
52 2 3.92287 2.55906 -1.65442 
53 2 -2.05398 -0.55152 -5.72421 
54 2 -4.91943 -1.61488 4.24707 
55 2 -2.875 -2.85449 3.69216 
56 2 6.15036 4.12689 -4.69171 
57 2 4.24462 6.27701 -2.77325 
58 2 2.10452 -1.72026 -2.66372 
59 2 2.58748 -5.7605 0.811085 
60 2 5.15144 -0.0299747 -5.73783 
61 2 4.03093 -4.70296 -2.22647 
62 2 5.11907 3.26983 3.91236 
63 2 3.98593 5.19788 -6.6188 
64 2 5.38033 4.01493 -5.91974 
65 2 6.52717 -4.85717 0.832048 
66 2 -6.03045 6.35793 -5.22691 
67 2 6.26335 -1.69462 1.68716 
68 2 3.19474 4.48761 5.24992 
69 2 -1.8212 -1.46688 -2.90379 
70 2 -5.94414 -3.37991 6.48172 
71 2 -2.37977 -0.787653 -0.490947 
72 2 2.80973 -1.14846 -6.7078 
73 2 -5.70063 4.55107 3.84873 
74 2 -6.10575 -3.46001 -0.264024 
75 2 -1.93737 3.04915 -5.99792 
76 2 5.14302 -0.857497 -3.58461 
77 2 6.67435 -1.2779 3.41232 
78 2 6.44291 -0.406645 4.01736 
79 2 -0.633036 -4.05731 -3.58505 
80 2 -5.65606 6.43704 6.12413 
81 2 4.85188 -5.36566 -0.980651 
82 2 -0.0294895 -2.64672 5.3328 
83 2 -3.52504 0.914046 -5.48004 
84 2 -2.77474 -5.72036 -3.46351 
85 2 6.63381 5.65204 0.823794 
86 2 3.36121 -0.219031 -3.65116 
87 2 -6.18268 4.60365 4.83724 
88 2 -3.76613 6.34979 4.28035 
89 2 -2.79552 5.27078 3.34333 
90 2 0.640527 -0.338304 -4.29668 
91 2 -2.39485 4.16091 -3.07631 
92 2 3.89723 -2.70436 1.08266 
93 2 4.41129 -2.59728 -0.505633 
94 2 0.595946 4.32943 5.75399 
95 2 -4.3679 -3.11593 0.476184 
96 2 -6.53896 6.59474 0.0643301 
97 2 -1.50895 -5.82993 -5.02167 
98 2 -4.2144 -2.87815 -5.72454 
99 2 -4.64756 5.51311 3.81644 
100 2 2.43919 0.913714 5.28354 
