ITEM: TIMESTEP
167000
ITEM: NUMBER OF ATOMS
100
ITEM: BOX BOUNDS pp pp pp
-6.83599 6.83599
-6.83599 6.83599
-6.83599 6.83599
ITEM: ATOMS id type x y z 
1 1 -4.54055 -6.79198 -3.6676 
2 1 5.62145 0.487215 1.30324 
3 1 0.777588 3.45196 -3.28385 
4 1 4.96989 6.42403 -4.67572 
5 1 -0.458493 -2.95341 -4.10553 
6 1 -3.45527 4.99033 -5.58601 
7 1 0.114098 -4.79813 2.89842 
8 1 4.34133 5.59151 4.41372 
9 1 5.85612 -5.41923 -0.0482462 
10 1 5.5578 -2.40005 -1.50781 
11 1 0.934029 -0.134233 4.67903 
12 1 -1.63912 -4.64971 -5.29254 
13 1 1.08817 -2.25959 -0.914096 
14 1 2.5911 -5.25324 -2.57615 
15 1 -0.917323 0.0914202 -0.972967 
16 1 -1.67388 5.32742 -4.07017 
17 1 -4.80035 -1.62383 -6.54983 
18 1 -4.26835 1.45116 3.92209 
19 1 3.75247 1.67147 -4.10624 
20 1 -4.65737 -4.31961 2.69416 
21 1 1.53725 -4.5293 -6.01617 
22 1 3.18089 3.77872 6.25795 
23 1 6.07307 -5.82368 -5.06244 
24 1 1.12807 -4.64371 -4.18294 
25 1 5.62872 -3.36585 3.94962 
26 1 -6.0435 1.09066 6.75845 
27 1 -6.11662 2.58951 -2.15823 
28 1 -2.30772 4.87356 4.80494 
29 1 -2.83697 -3.54987 -4.62864 
30 1 -3.45569 -2.93733 -0.0928491 
31 1 -1.56456 -3.95515 -2.93765 
32 1 6.17173 2.54148 5.90357 
33 1 -6.42487 2.4592 6.17925 
34 1 -0.33266 0.0441909 -4.40761 
35 1 -5.6274 -4.12475 -5.9224 
36 1 1.26568 3.14846 6.77656 
37 1 0.689227 -1.51619 1.19545 
38 1 -2.47363 -3.46715 -6.13806 
39 1 6.79379 -4.97754 -2.80545 
40 1 -3.78877 1.67821 2.38531 
41 1 2.17864 -3.89582 2.89538 
42 1 -1.57509 -5.74913 -2.43568 
43 1 4.0022 -3.12984 2.88929 
44 1 -5.29193 -6.33997 -5.82036 
45 1 5.6837 -1.84245 6.79425 
46 1 -1.0049 0.170741 6.28903 
47 1 0.576851 -0.065254 -0.0490738 
48 1 2.40481 -3.26829 4.83926 
49 1 -5.05243 -6.23396 1.46743 
50 1 4.68879 2.98271 5.82879 
51 2 5.23484 1.0247 -0.455492 
52 2 3.79767 2.44517 -1.57626 
53 2 -2.02969 -0.649409 -5.71933 
54 2 -4.94136 -1.5842 4.31125 
55 2 -2.85063 -2.85798 3.74576 
56 2 6.09646 4.14354 -4.72012 
57 2 4.23264 6.30942 -2.68353 
58 2 2.23713 -1.71596 -2.68641 
59 2 2.58014 -5.76604 0.762655 
60 2 5.1701 -0.121227 -5.70657 
61 2 4.02411 -4.6325 -2.12702 
62 2 5.20288 3.22872 3.96111 
63 2 3.86327 5.12968 -6.60407 
64 2 5.42571 3.95171 -5.93787 
65 2 6.56006 -4.86633 0.872674 
66 2 -6.07778 6.33326 -5.1809 
67 2 6.26299 -1.68234 1.73965 
68 2 3.01513 4.4152 5.22447 
69 2 -1.77279 -1.53217 -2.79444 
70 2 -5.97633 -3.32538 6.40282 
71 2 -2.22596 -0.93867 -0.467193 
72 2 2.8722 -1.13906 -6.65102 
73 2 -5.71423 4.52565 3.81538 
74 2 -6.0234 -3.50862 -0.293363 
75 2 -2.0121 3.00363 -6.11977 
76 2 5.08612 -0.892759 -3.67447 
77 2 6.64206 -1.35524 3.40422 
78 2 6.50587 -0.279954 4.00482 
79 2 -0.623731 -4.18033 -3.68157 
80 2 -5.62148 6.54671 6.14573 
81 2 4.78331 -5.23335 -0.832621 
82 2 -0.026816 -2.63962 5.31196 
83 2 -3.6064 0.980582 -5.52672 
84 2 -2.83514 -5.65593 -3.4066 
85 2 6.72928 5.61762 0.846951 
86 2 3.28069 -0.190744 -3.60308 
87 2 -6.11896 4.58396 4.78972 
88 2 -3.74524 6.29108 4.31789 
89 2 -2.73156 5.29229 3.37108 
90 2 0.708482 -0.277639 -4.24426 
91 2 -2.41247 4.05511 -3.20326 
92 2 3.93951 -2.70529 0.994035 
93 2 4.39778 -2.54831 -0.612822 
94 2 0.638804 4.30402 5.83089 
95 2 -4.33571 -3.12363 0.498038 
96 2 -6.62854 6.51761 0.00609493 
97 2 -1.40723 -5.92931 -5.18573 
98 2 -4.46065 -3.01223 -5.74442 
99 2 -4.628 5.43055 3.84369 
100 2 2.54637 0.993517 5.3206 
