ITEM: TIMESTEP
169000
ITEM: NUMBER OF ATOMS
100
ITEM: BOX BOUNDS pp pp pp
-6.83599 6.83599
-6.83599 6.83599
-6.83599 6.83599
ITEM: ATOMS id type x y z 
1 1 -4.37608 -6.77453 -3.83485 
2 1 5.35967 0.54881 1.07634 
3 1 0.931882 3.45917 -3.48769 
4 1 5.04176 6.33826 -4.56329 
5 1 -0.507753 -3.01619 -4.12826 
6 1 -3.46658 4.91211 -5.47374 
7 1 -0.0424752 -4.82012 3.07208 
8 1 4.19223 5.44168 4.55385 
9 1 5.60061 -5.33496 -0.155954 
10 1 5.39923 -2.3753 -1.51121 
11 1 0.785903 -0.0319926 4.40121 
12 1 -1.66008 -4.69618 -5.3383 
13 1 0.9566 -2.39396 -0.828026 
14 1 2.59813 -5.12894 -2.20344 
15 1 -0.820607 0.125395 -1.10624 
16 1 -1.72999 5.46856 -4.30894 
17 1 -4.73089 -1.30195 -6.59945 
18 1 -4.30135 1.31588 3.839 
19 1 3.47348 1.70638 -4.15625 
20 1 -4.70167 -4.33681 2.53801 
21 1 1.1759 -4.48712 -6.31627 
22 1 3.20026 3.87838 6.47914 
23 1 6.11421 -5.62372 -4.93865 
24 1 1.21315 -4.67833 -4.18487 
25 1 5.58242 -3.53178 3.84165 
26 1 -6.05282 1.22666 6.63488 
27 1 -5.96469 2.58169 -2.35791 
28 1 -2.36974 4.66994 4.87878 
29 1 -3.0013 -3.55481 -4.729 
30 1 -3.20013 -3.07355 0.199048 
31 1 -1.41836 -3.95031 -3.27299 
32 1 6.14016 2.44129 5.78313 
33 1 -6.53275 2.52908 6.21253 
34 1 -0.187156 -0.0504778 -4.28968 
35 1 -5.64219 -3.96966 -5.92079 
36 1 1.48876 3.17487 6.72843 
37 1 0.680128 -1.48414 1.44151 
38 1 -2.62324 -3.54416 -6.04875 
39 1 6.72358 -4.81307 -2.93891 
40 1 -3.84136 1.43639 2.48521 
41 1 2.1314 -3.87211 3.12747 
42 1 -1.49525 -5.49784 -2.52547 
43 1 3.67551 -3.17778 2.84783 
44 1 -5.21663 -6.38935 -5.84537 
45 1 5.69982 -1.6443 -6.76924 
46 1 -1.09544 -0.0643239 6.3316 
47 1 0.581893 -0.0827034 -0.17663 
48 1 2.50089 -3.32048 5.0268 
49 1 -4.82199 -6.17792 1.39805 
50 1 4.80839 2.73237 6.13185 
51 2 5.10949 0.730258 -0.446634 
52 2 3.53066 2.28534 -1.42997 
53 2 -2.00901 -0.777441 -5.78262 
54 2 -4.93008 -1.56856 4.37874 
55 2 -2.7957 -2.96165 3.90432 
56 2 5.92481 4.21085 -4.78188 
57 2 4.20858 6.40911 -2.43873 
58 2 2.36631 -1.65682 -2.71519 
59 2 2.54211 -5.82734 0.670447 
60 2 5.15575 -0.394134 -5.60856 
61 2 3.97708 -4.38778 -2.02333 
62 2 5.37341 3.14324 4.05336 
63 2 3.5549 5.04779 -6.62941 
64 2 5.62348 3.87297 -5.97356 
65 2 6.59907 -4.96761 0.966902 
66 2 -6.20123 6.24055 -5.085 
67 2 6.21061 -1.68306 1.83037 
68 2 2.83449 4.41637 5.2005 
69 2 -1.7475 -1.63712 -2.6545 
70 2 -6.0877 -3.33012 6.22971 
71 2 -1.91985 -1.1512 -0.460858 
72 2 3.01287 -0.946642 -6.48969 
73 2 -5.6878 4.51679 3.66896 
74 2 -5.77508 -3.76378 -0.366325 
75 2 -2.20396 3.1404 -6.34563 
76 2 4.98901 -0.940753 -3.85043 
77 2 6.74885 -1.43015 3.44549 
78 2 6.50612 0.0749565 3.90992 
79 2 -0.589817 -4.41026 -3.93834 
80 2 -5.63128 6.67495 6.0625 
81 2 4.65827 -5.04864 -0.597327 
82 2 -0.00561189 -2.66121 5.37512 
83 2 -3.67162 1.15536 -5.63338 
84 2 -2.93018 -5.52118 -3.21859 
85 2 -6.83145 5.57907 0.983215 
86 2 3.15977 -0.171762 -3.62614 
87 2 -5.96888 4.46726 4.85194 
88 2 -3.69775 6.05635 4.2588 
89 2 -2.57866 5.38446 3.52389 
90 2 0.995201 -0.192157 -4.25029 
91 2 -2.36322 3.91565 -3.58984 
92 2 3.91464 -2.59485 0.832834 
93 2 4.44826 -2.45638 -0.871809 
94 2 0.738289 4.25742 5.94485 
95 2 -4.32696 -3.14037 0.531617 
96 2 -6.73898 6.35218 -0.0644507 
97 2 -1.26103 -6.20133 -5.41877 
98 2 -4.9525 -3.18057 -5.78493 
99 2 -4.57207 5.33721 3.92564 
100 2 2.65862 1.23439 5.37455 
