ITEM: TIMESTEP
170000
ITEM: NUMBER OF ATOMS
100
ITEM: BOX BOUNDS pp pp pp
-6.83599 6.83599
-6.83599 6.83599
-6.83599 6.83599
ITEM: ATOMS id type x y z 
1 1 -4.25907 -6.75601 -3.88231 
2 1 5.23716 0.630411 0.879357 
3 1 0.986504 3.49045 -3.59348 
4 1 5.04377 6.32562 -4.50457 
5 1 -0.477487 -3.03765 -4.18561 
6 1 -3.42212 4.85339 -5.40374 
7 1 -0.0780459 -4.89513 3.08182 
8 1 4.05154 5.38675 4.60077 
9 1 5.53265 -5.29712 -0.211864 
10 1 5.30957 -2.33888 -1.56515 
11 1 0.729046 0.0363539 4.31087 
12 1 -1.64709 -4.78061 -5.41279 
13 1 0.914129 -2.44112 -0.788318 
14 1 2.6384 -5.10742 -2.05009 
15 1 -0.810176 0.193133 -1.10106 
16 1 -1.78023 5.49167 -4.39064 
17 1 -4.64308 -1.11108 -6.61725 
18 1 -4.2921 1.22679 3.84432 
19 1 3.35491 1.74992 -4.13422 
20 1 -4.67281 -4.33928 2.41306 
21 1 1.05278 -4.47782 -6.50436 
22 1 3.2633 3.85725 6.50283 
23 1 6.12263 -5.56138 -4.90867 
24 1 1.28688 -4.62971 -4.2082 
25 1 5.55078 -3.60029 3.81072 
26 1 -6.02407 1.25097 6.53295 
27 1 -5.89511 2.60399 -2.48791 
28 1 -2.4132 4.5281 4.90606 
29 1 -3.13228 -3.54442 -4.77796 
30 1 -3.12632 -3.10869 0.295203 
31 1 -1.3868 -3.96544 -3.35092 
32 1 6.11922 2.41163 5.69817 
33 1 -6.57181 2.56353 6.23164 
34 1 -0.137279 -0.0544347 -4.24789 
35 1 -5.70209 -3.99479 -5.95357 
36 1 1.5501 3.13491 6.74069 
37 1 0.63294 -1.47236 1.48061 
38 1 -2.7354 -3.57399 -5.98859 
39 1 6.71365 -4.85248 -2.98082 
40 1 -3.87852 1.31343 2.51349 
41 1 2.14734 -3.8332 3.22631 
42 1 -1.4524 -5.38929 -2.57789 
43 1 3.48639 -3.22726 2.80855 
44 1 -5.20274 -6.41869 -5.83489 
45 1 5.74181 -1.55528 -6.6909 
46 1 -1.16412 -0.222468 6.34258 
47 1 0.585055 -0.0800071 -0.258644 
48 1 2.57268 -3.34471 5.0955 
49 1 -4.72671 -6.10426 1.37475 
50 1 4.82472 2.62318 6.31654 
51 2 5.02465 0.574518 -0.43714 
52 2 3.44019 2.2062 -1.39486 
53 2 -1.95813 -0.885736 -5.82573 
54 2 -4.91633 -1.55742 4.43933 
55 2 -2.7453 -3.01061 3.98838 
56 2 5.81779 4.26475 -4.85564 
57 2 4.19219 6.49675 -2.33072 
58 2 2.39953 -1.68883 -2.72134 
59 2 2.51161 -5.84779 0.607858 
60 2 5.17427 -0.442504 -5.57779 
61 2 3.92202 -4.27116 -1.96143 
62 2 5.46161 3.10622 4.04885 
63 2 3.4624 5.05948 -6.67829 
64 2 5.7445 3.84958 -5.97531 
65 2 6.62694 -5.03513 1.02234 
66 2 -6.29254 6.19212 -5.08078 
67 2 6.18753 -1.68949 1.84423 
68 2 2.79691 4.42341 5.21369 
69 2 -1.7589 -1.64902 -2.61061 
70 2 -6.1381 -3.35459 6.17089 
71 2 -1.7868 -1.31818 -0.45867 
72 2 3.09595 -0.903483 -6.35625 
73 2 -5.66257 4.5415 3.56039 
74 2 -5.68571 -3.92471 -0.433966 
75 2 -2.28535 3.19271 -6.44736 
76 2 4.89067 -0.965346 -3.96285 
77 2 6.81635 -1.43461 3.45978 
78 2 6.47675 0.259808 3.85501 
79 2 -0.590393 -4.55743 -4.08345 
80 2 -5.67085 6.76757 5.97155 
81 2 4.53738 -4.95721 -0.527445 
82 2 0.000816155 -2.68687 5.41456 
83 2 -3.67343 1.22352 -5.7082 
84 2 -2.97631 -5.38337 -3.1326 
85 2 -6.77147 5.57476 1.05257 
86 2 3.14597 -0.150687 -3.60178 
87 2 -5.87395 4.41851 4.96703 
88 2 -3.668 5.92197 4.25667 
89 2 -2.50962 5.39567 3.65056 
90 2 1.12637 -0.166957 -4.26036 
91 2 -2.25226 3.83997 -3.77725 
92 2 3.91336 -2.50536 0.668736 
93 2 4.42328 -2.35221 -0.995446 
94 2 0.787771 4.19959 5.95229 
95 2 -4.30354 -3.15694 0.548278 
96 2 -6.80107 6.31441 -0.0371606 
97 2 -1.20231 -6.29863 -5.525 
98 2 -5.10531 -3.07197 -5.77574 
99 2 -4.55888 5.26564 3.99734 
100 2 2.70188 1.40429 5.43972 
