ITEM: TIMESTEP
171000
ITEM: NUMBER OF ATOMS
100
ITEM: BOX BOUNDS pp pp pp
-6.83599 6.83599
-6.83599 6.83599
-6.83599 6.83599
ITEM: ATOMS id type x y z 
1 1 -4.14988 -6.72237 -3.93057 
2 1 5.1388 0.699157 0.784904 
3 1 1.05256 3.47539 -3.72296 
4 1 5.07383 6.33615 -4.43329 
5 1 -0.44361 -2.98989 -4.28803 
6 1 -3.41267 4.80391 -5.39422 
7 1 -0.166859 -5.01207 3.06464 
8 1 3.94556 5.331 4.64499 
9 1 5.51356 -5.27633 -0.257066 
10 1 5.23958 -2.38778 -1.70136 
11 1 0.628938 0.0439279 4.21395 
12 1 -1.64022 -4.84539 -5.4786 
13 1 0.894707 -2.4797 -0.776513 
14 1 2.66194 -5.08124 -1.88971 
15 1 -0.841798 0.249549 -1.07351 
16 1 -1.85904 5.52671 -4.47293 
17 1 -4.58495 -0.963943 -6.62824 
18 1 -4.31171 1.17545 3.8531 
19 1 3.23988 1.80167 -4.06205 
20 1 -4.63142 -4.33318 2.26652 
21 1 0.949119 -4.46212 -6.69043 
22 1 3.34077 3.80649 6.49897 
23 1 6.15449 -5.54346 -4.87084 
24 1 1.37671 -4.58318 -4.22916 
25 1 5.53241 -3.68816 3.82733 
26 1 -6.03849 1.19897 6.45552 
27 1 -5.80216 2.64725 -2.61106 
28 1 -2.45079 4.41487 4.93183 
29 1 -3.22216 -3.57105 -4.82504 
30 1 -3.0162 -3.10811 0.382748 
31 1 -1.37985 -3.958 -3.40782 
32 1 6.15941 2.37175 5.63827 
33 1 -6.65022 2.57011 6.20694 
34 1 -0.130181 -0.0231859 -4.20149 
35 1 -5.74195 -3.99683 -5.99842 
36 1 1.60465 3.12767 6.76044 
37 1 0.635361 -1.441 1.54355 
38 1 -2.83863 -3.60061 -5.89879 
39 1 6.73284 -4.88543 -3.03145 
40 1 -3.87811 1.212 2.524 
41 1 2.14929 -3.8086 3.31175 
42 1 -1.43673 -5.25597 -2.65013 
43 1 3.33289 -3.2615 2.72882 
44 1 -5.13796 -6.45567 -5.82053 
45 1 5.80326 -1.50501 -6.58869 
46 1 -1.21312 -0.392761 6.34742 
47 1 0.620935 -0.0928778 -0.313398 
48 1 2.6212 -3.36087 5.1335 
49 1 -4.66537 -6.04712 1.33898 
50 1 4.77542 2.54103 6.49729 
51 2 4.95362 0.404185 -0.40689 
52 2 3.34609 2.11866 -1.34618 
53 2 -1.89055 -1.00195 -5.88371 
54 2 -4.92671 -1.52312 4.472 
55 2 -2.70595 -3.05834 4.06275 
56 2 5.72493 4.31285 -4.90949 
57 2 4.1709 6.5674 -2.21493 
58 2 2.45427 -1.7657 -2.73856 
59 2 2.46509 -5.88788 0.516208 
60 2 5.19137 -0.441369 -5.53038 
61 2 3.84219 -4.17263 -1.91281 
62 2 5.53896 3.07097 4.02681 
63 2 3.39344 5.09334 -6.72352 
64 2 5.85539 3.8657 -5.98924 
65 2 6.65166 -5.09344 1.0781 
66 2 -6.40545 6.15722 -5.11706 
67 2 6.18897 -1.68066 1.87632 
68 2 2.74414 4.41982 5.16958 
69 2 -1.77517 -1.65915 -2.58216 
70 2 -6.1899 -3.38076 6.09929 
71 2 -1.69469 -1.4488 -0.478127 
72 2 3.20466 -0.823244 -6.26658 
73 2 -5.68107 4.57265 3.45359 
74 2 -5.6226 -4.1199 -0.506938 
75 2 -2.31008 3.22407 -6.59223 
76 2 4.82463 -1.00447 -4.0283 
77 2 -6.7914 -1.44594 3.44748 
78 2 6.45616 0.435074 3.79 
79 2 -0.587544 -4.71439 -4.22008 
80 2 -5.67356 6.79999 5.92623 
81 2 4.44606 -4.87715 -0.508286 
82 2 -0.00359113 -2.69841 5.40476 
83 2 -3.67974 1.28166 -5.79524 
84 2 -3.03566 -5.22811 -3.06321 
85 2 -6.70502 5.5208 1.13084 
86 2 3.18671 -0.0731251 -3.57573 
87 2 -5.79952 4.37498 5.05606 
88 2 -3.66593 5.80463 4.27004 
89 2 -2.45655 5.3928 3.77485 
90 2 1.2289 -0.134242 -4.26593 
91 2 -2.14691 3.72746 -3.96007 
92 2 3.85954 -2.38572 0.526531 
93 2 4.34557 -2.23412 -1.06797 
94 2 0.840805 4.17263 5.97941 
95 2 -4.24524 -3.18408 0.495102 
96 2 6.8077 6.28997 -0.0526315 
97 2 -1.15813 -6.4413 -5.55996 
98 2 -5.28241 -2.98155 -5.76942 
99 2 -4.51055 5.27185 4.03179 
100 2 2.75531 1.57123 5.52496 
