ITEM: TIMESTEP
175000
ITEM: NUMBER OF ATOMS
100
ITEM: BOX BOUNDS pp pp pp
-6.83599 6.83599
-6.83599 6.83599
-6.83599 6.83599
ITEM: ATOMS id type x y z 
1 1 -3.69883 -6.79388 -4.2433 
2 1 5.01439 0.969199 0.475093 
3 1 1.42929 3.10769 -4.22729 
4 1 5.17479 6.22665 -4.13905 
5 1 -0.342806 -2.96792 -4.65235 
6 1 -3.26716 4.59354 -5.34283 
7 1 -0.363396 -5.5692 2.89285 
8 1 3.56137 5.06514 4.63414 
9 1 5.41097 -5.38472 -0.348752 
10 1 5.21922 -2.74973 -2.1744 
11 1 0.388213 -0.000773357 4.16943 
12 1 -1.73859 -4.87376 -5.68195 
13 1 1.02785 -2.58622 -0.686685 
14 1 2.73484 -4.91655 -1.09453 
15 1 -0.955708 0.40852 -0.833501 
16 1 -1.94114 5.58759 -4.76639 
17 1 -4.8107 -0.450804 -6.70495 
18 1 -4.3974 0.808878 3.72721 
19 1 2.79063 2.06831 -3.88778 
20 1 -4.37181 -4.12659 1.71646 
21 1 0.326151 -4.4998 6.54525 
22 1 3.69825 3.78684 6.48543 
23 1 6.36262 -5.48552 -4.89989 
24 1 1.74208 -4.52597 -4.21334 
25 1 5.51958 -3.96032 3.58176 
26 1 -6.24586 1.03167 6.14915 
27 1 -5.41731 2.73277 -2.99673 
28 1 -2.58175 4.08504 4.9548 
29 1 -3.5721 -3.64406 -4.83588 
30 1 -2.66196 -3.08683 0.573701 
31 1 -1.25465 -4.14371 -3.53774 
32 1 5.92961 2.18498 5.54428 
33 1 -6.60396 2.58649 6.05231 
34 1 -0.363536 -0.128896 -4.15952 
35 1 -5.9215 -3.97326 -5.95172 
36 1 1.78918 3.25949 -6.71927 
37 1 0.477734 -1.13626 1.95775 
38 1 -2.95137 -3.77619 -5.99687 
39 1 -6.72109 -4.94367 -3.47966 
40 1 -3.86274 0.716471 2.63812 
41 1 2.17634 -3.75657 3.74947 
42 1 -1.52303 -4.90241 -2.84205 
43 1 2.59484 -3.16842 2.49786 
44 1 -4.68316 -6.56069 -5.69321 
45 1 5.91072 -1.21346 -6.38269 
46 1 -1.1996 -0.943734 6.32268 
47 1 0.716819 -0.0628305 -0.374058 
48 1 2.8032 -3.28078 5.32938 
49 1 -4.69056 -5.80298 1.21531 
50 1 4.81858 2.33929 -6.81002 
51 2 4.7203 -0.120457 -0.177378 
52 2 3.16058 1.76184 -1.00524 
53 2 -1.73412 -1.3143 -5.94426 
54 2 -4.91309 -1.51597 4.65548 
55 2 -2.79939 -3.04591 4.14576 
56 2 5.32105 4.66655 -5.0351 
57 2 4.1888 -6.75625 -1.68945 
58 2 2.57088 -2.04427 -3.03937 
59 2 2.24172 -6.08286 0.276308 
60 2 4.94699 -0.477539 -5.19002 
61 2 3.63918 -4.1773 -1.70106 
62 2 5.96687 2.91046 3.89729 
63 2 3.05001 5.22004 6.83221 
64 2 6.55237 3.87515 -6.04809 
65 2 6.81565 -5.34962 1.14527 
66 2 -6.69581 6.0538 -5.16184 
67 2 6.40106 -1.55265 2.1933 
68 2 2.62198 4.33649 5.04878 
69 2 -1.84041 -1.72374 -2.73597 
70 2 -6.41921 -3.21386 5.60677 
71 2 -1.41117 -1.87353 -0.591935 
72 2 3.43186 -0.337112 -5.84071 
73 2 -5.85942 4.51723 3.3468 
74 2 -5.38568 -4.81918 -0.579034 
75 2 -2.20287 2.9352 -6.79772 
76 2 4.48548 -1.18814 -4.06411 
77 2 6.6474 -1.33857 3.41107 
78 2 6.53207 0.922814 3.41914 
79 2 -0.536241 -5.23899 -4.77842 
80 2 -5.74915 -6.66389 5.70448 
81 2 4.1062 -4.76731 -0.332959 
82 2 -0.0915423 -2.62694 5.47341 
83 2 -3.81175 1.61837 -6.12024 
84 2 -3.53405 -4.87615 -2.66937 
85 2 -6.4394 5.26428 1.35916 
86 2 3.23881 0.2181 -3.31991 
87 2 -5.75519 4.30538 5.27746 
88 2 -3.37372 5.6373 4.55606 
89 2 -2.33984 5.24237 4.11524 
90 2 1.34138 0.0345009 -4.29511 
91 2 -1.78971 3.48877 -4.90924 
92 2 3.55232 -2.01669 0.334565 
93 2 4.15038 -1.74039 -1.4369 
94 2 1.0229 4.32439 5.80378 
95 2 -4.00012 -3.48563 0.152777 
96 2 6.59668 6.21231 -0.340682 
97 2 -1.30271 -6.79691 -5.70848 
98 2 -5.85387 -2.76464 -5.75505 
99 2 -4.69017 5.14246 4.00948 
100 2 2.92263 2.18298 5.91159 
