ITEM: TIMESTEP
178000
ITEM: NUMBER OF ATOMS
100
ITEM: BOX BOUNDS pp pp pp
-6.83599 6.83599
-6.83599 6.83599
-6.83599 6.83599
ITEM: ATOMS id type x y z 
1 1 -3.33244 -6.74529 -4.55867 
2 1 4.95426 1.15828 0.42104 
3 1 1.8302 2.759 -4.61414 
4 1 5.04394 6.10844 -4.05588 
5 1 -0.195357 -2.68497 -4.91728 
6 1 -2.96225 4.42084 -5.31093 
7 1 -0.362043 -5.72679 2.52175 
8 1 3.288 5.0283 4.61658 
9 1 5.39121 -5.71563 -0.315258 
10 1 5.31213 -3.05804 -2.29222 
11 1 0.260645 -0.203732 4.2143 
12 1 -1.89078 -4.88743 -5.81742 
13 1 1.11377 -2.78475 -0.740857 
14 1 2.98002 -4.5394 -0.73701 
15 1 -1.10313 0.3855 -0.593035 
16 1 -1.93507 5.55886 -5.01017 
17 1 -4.93373 -0.17781 -6.74831 
18 1 -4.5202 0.702248 3.60603 
19 1 2.59713 2.39716 -3.6278 
20 1 -4.11199 -3.93227 1.34623 
21 1 0.0376215 -4.38674 6.52985 
22 1 4.02704 3.81269 6.55096 
23 1 6.51943 -5.48031 -5.02444 
24 1 2.00151 -4.55301 -4.17718 
25 1 5.62407 -4.03383 3.47619 
26 1 -6.36202 0.7401 5.87104 
27 1 -5.20478 2.77061 -3.10111 
28 1 -2.71301 3.75943 4.73036 
29 1 -3.70696 -3.67518 -5.11399 
30 1 -2.57049 -3.10837 0.584534 
31 1 -1.159 -4.06174 -3.93997 
32 1 5.5455 2.15243 5.34049 
33 1 -6.59718 2.88907 5.98885 
34 1 -0.285121 -0.139647 -4.20356 
35 1 -6.00108 -3.97809 -5.75969 
36 1 2.12607 3.21005 -6.53587 
37 1 0.374714 -0.947223 2.19511 
38 1 -2.97967 -3.7508 -6.01965 
39 1 -6.6269 -4.87108 -3.73214 
40 1 -3.81738 0.48017 2.67972 
41 1 2.46431 -3.72027 4.12297 
42 1 -1.60346 -5.05707 -2.66033 
43 1 2.07092 -3.16028 2.35374 
44 1 -4.46199 -6.68214 -5.811 
45 1 6.21112 -1.04783 -6.44046 
46 1 -1.03833 -1.21407 6.29869 
47 1 0.760789 0.163981 -0.335735 
48 1 3.00367 -3.29796 5.51408 
49 1 -4.75845 -5.86939 1.20313 
50 1 5.0333 2.50325 -6.81441 
51 2 4.74854 -0.287773 0.0187114 
52 2 3.12284 1.49 -0.716049 
53 2 -1.6004 -1.5921 -6.13275 
54 2 -4.89787 -1.56076 4.90984 
55 2 -3.12116 -2.87925 4.21456 
56 2 5.26672 4.94527 -5.09582 
57 2 4.15302 -6.47332 -1.29145 
58 2 2.59648 -2.33384 -3.22198 
59 2 2.08794 -6.20364 0.177906 
60 2 4.56131 -0.476151 -5.01736 
61 2 3.63195 -4.1594 -1.53593 
62 2 6.38419 2.93392 3.70193 
63 2 2.77284 5.14012 6.46622 
64 2 -6.54252 3.91043 -6.12072 
65 2 -6.59887 -5.61281 0.973805 
66 2 6.74897 6.00695 -5.154 
67 2 6.73426 -1.51301 2.38694 
68 2 2.57159 4.28092 5.03116 
69 2 -2.14044 -1.82604 -2.85129 
70 2 -6.39505 -3.26303 5.29657 
71 2 -1.36246 -2.09203 -0.671819 
72 2 3.25077 -0.201514 -5.53736 
73 2 -6.07136 4.63131 3.11622 
74 2 -5.41192 -5.27967 -0.67437 
75 2 -2.12374 2.51141 6.79984 
76 2 4.02142 -1.48298 -4.03618 
77 2 6.30824 -1.15597 3.59484 
78 2 6.67355 1.20103 2.97963 
79 2 -0.547805 -5.75238 -5.24608 
80 2 -5.86724 -6.68681 5.5781 
81 2 3.85494 -5.01165 -0.204514 
82 2 -0.0114193 -2.58563 5.46044 
83 2 -3.72246 1.89455 -6.38032 
84 2 -3.98607 -4.57926 -2.49476 
85 2 -6.25278 5.17825 1.45351 
86 2 3.42712 0.374219 -3.28664 
87 2 -5.74362 4.11277 5.29945 
88 2 -3.49984 5.68338 4.82424 
89 2 -2.1487 5.00843 4.10132 
90 2 1.29713 0.190826 -4.34695 
91 2 -1.40118 3.38793 -5.52596 
92 2 3.24947 -2.08701 0.432589 
93 2 3.99272 -1.46608 -1.52756 
94 2 1.1625 4.47286 5.56315 
95 2 -3.85013 -3.59464 -0.148894 
96 2 6.49599 6.19158 -0.718263 
97 2 -1.32087 6.76431 -5.61613 
98 2 -6.21687 -2.45906 -5.99953 
99 2 -4.59061 5.08708 4.14663 
100 2 3.13243 2.45521 6.17246 
