ITEM: TIMESTEP
108000
ITEM: NUMBER OF ATOMS
100
ITEM: BOX BOUNDS pp pp pp
-6.83599 6.83599
-6.83599 6.83599
-6.83599 6.83599
ITEM: ATOMS id type x y z 
1 1 6.16583 -2.54948 -5.94303 
2 1 6.0397 -0.429488 2.88636 
3 1 -0.873308 5.39995 -0.370859 
4 1 4.23793 5.33929 -4.78688 
5 1 3.94431 -5.2951 -6.24294 
6 1 -1.07513 6.5924 -2.67013 
7 1 5.30995 6.46867 2.95466 
8 1 -5.72351 4.62225 -4.3023 
9 1 6.09171 -5.47934 -2.22657 
10 1 4.23108 -2.24287 1.09341 
11 1 0.84476 -3.93828 6.64154 
12 1 2.32161 -4.87081 -3.60418 
13 1 1.31578 1.14983 0.384963 
14 1 2.38997 -6.62882 -5.19913 
15 1 0.0968746 1.07615 0.414988 
16 1 -1.20446 -6.13107 0.827245 
17 1 -3.76714 -3.58756 -5.47098 
18 1 -5.67926 2.56952 4.66565 
19 1 4.03925 1.84824 -3.0243 
20 1 -6.19409 -1.59009 2.85175 
21 1 1.23521 6.20693 -2.96306 
22 1 2.15345 3.00213 -3.68022 
23 1 -5.91146 4.98461 -5.653 
24 1 -0.291398 -4.1732 -6.52861 
25 1 3.05107 -1.94582 6.17374 
26 1 5.33134 -1.48612 6.25464 
27 1 -5.98398 2.79467 0.75674 
28 1 -4.20373 4.98367 4.39157 
29 1 -4.46012 -0.297349 -0.84846 
30 1 -4.12484 -2.52478 -3.46848 
31 1 -3.39501 -4.2347 -2.28351 
32 1 6.62082 2.18024 -4.47626 
33 1 5.3355 1.05096 -5.48714 
34 1 -5.96052 3.20477 -5.76678 
35 1 6.6694 5.69375 -2.72497 
36 1 1.06404 1.89995 4.59377 
37 1 1.81052 -2.17668 -0.192193 
38 1 -2.8182 -5.28685 -5.78395 
39 1 -4.89797 -3.45968 -1.26017 
40 1 -3.81066 5.62861 1.92715 
41 1 1.72912 -3.40303 4.68596 
42 1 0.0203054 -6.35324 -0.666351 
43 1 6.26412 -6.79885 -0.76654 
44 1 -5.04864 -2.83986 6.5462 
45 1 5.28928 -5.69658 6.35462 
46 1 -0.418206 0.0613442 -4.11292 
47 1 -0.993926 3.00541 -2.43372 
48 1 2.2397 -3.84833 6.49344 
49 1 5.10516 -5.99585 3.5666 
50 1 3.31526 2.51755 -5.33305 
51 2 4.29744 1.81237 -0.114031 
52 2 -5.56471 1.77623 -4.89883 
53 2 -3.39856 -1.11572 5.37139 
54 2 -1.53846 -0.66568 -0.0383747 
55 2 -1.15194 -1.72958 4.93947 
56 2 5.19189 -1.67118 -2.03996 
57 2 3.53753 -3.21899 0.315613 
58 2 -0.40198 -0.336878 -0.366174 
59 2 3.56437 6.24735 -0.623886 
60 2 4.49087 1.01095 6.46502 
61 2 4.75317 6.35099 -4.54659 
62 2 4.23992 6.05138 0.962962 
63 2 4.59478 4.38402 -5.53552 
64 2 0.369617 4.94915 5.32719 
65 2 6.04884 -3.46745 1.35487 
66 2 -4.21943 3.86753 -5.49697 
67 2 -5.57823 -3.55756 0.59383 
68 2 4.32149 -5.41655 5.34859 
69 2 -3.10421 2.68564 -4.64949 
70 2 -3.28147 -4.18857 6.53087 
71 2 -3.25044 2.88128 -0.680367 
72 2 2.08029 1.19982 -6.73255 
73 2 -2.86853 3.99452 -6.44406 
74 2 -4.21695 -4.9578 1.44864 
75 2 -1.72986 6.36442 -5.88992 
76 2 3.23653 2.55843 1.65565 
77 2 -5.74406 -1.07482 5.84548 
78 2 5.62614 -2.76898 3.80674 
79 2 1.468 -4.09284 -1.75505 
80 2 -5.15582 3.84623 2.29436 
81 2 6.82391 4.05789 -3.90191 
82 2 0.779849 -5.60306 1.16305 
83 2 -5.42108 0.532784 6.41815 
84 2 -2.91038 -4.21748 2.16527 
85 2 -5.79318 5.51863 -0.31462 
86 2 3.61291 -0.540057 -3.33529 
87 2 3.75694 2.14817 6.54639 
88 2 -4.04982 6.15131 5.26226 
89 2 -5.46426 -6.34167 0.960529 
90 2 1.46537 -1.46975 -4.79576 
91 2 -4.65947 3.86645 -0.945585 
92 2 -5.95185 -5.11158 0.587806 
93 2 3.26088 -0.0148334 0.245398 
94 2 -0.733989 6.02805 3.51123 
95 2 -3.1551 -2.02535 -0.734184 
96 2 -4.36183 -6.75969 -1.11385 
97 2 1.43323 -5.998 -3.99181 
98 2 -1.55702 -3.45038 6.56561 
99 2 -4.30476 -2.52075 5.06033 
100 2 0.0200382 -5.28471 3.15227 
