ITEM: TIMESTEP
180000
ITEM: NUMBER OF ATOMS
100
ITEM: BOX BOUNDS pp pp pp
-6.83599 6.83599
-6.83599 6.83599
-6.83599 6.83599
ITEM: ATOMS id type x y z 
1 1 -3.09031 -6.68188 -4.5772 
2 1 4.89664 1.31265 0.389225 
3 1 2.02098 2.6835 -4.8387 
4 1 4.84529 6.1324 -4.13966 
5 1 -0.272374 -2.53854 -5.0737 
6 1 -2.91548 4.28016 -5.25954 
7 1 -0.380947 -5.68238 2.27943 
8 1 3.20517 5.03038 4.66195 
9 1 5.44979 -5.99689 -0.257269 
10 1 5.33236 -3.37715 -2.34485 
11 1 0.170911 -0.358246 4.22052 
12 1 -1.86453 -4.85102 -5.82109 
13 1 1.20518 -2.90193 -0.777652 
14 1 3.07753 -4.41001 -0.417711 
15 1 -1.14346 0.312079 -0.399868 
16 1 -1.901 5.44607 -5.11291 
17 1 -5.04427 -0.00855419 -6.72919 
18 1 -4.59462 0.572044 3.71166 
19 1 2.58048 2.59739 -3.49339 
20 1 -3.9556 -3.70718 1.30078 
21 1 -0.159981 -4.2624 6.49747 
22 1 4.31728 3.7721 6.55925 
23 1 6.55163 -5.50764 -4.97241 
24 1 2.27181 -4.52495 -4.27898 
25 1 5.73897 -3.95744 3.35883 
26 1 -6.36873 0.609755 5.70466 
27 1 -5.11406 2.82536 -3.22375 
28 1 -2.66181 3.50716 4.42513 
29 1 -3.78546 -3.74064 -5.19398 
30 1 -2.66541 -3.10769 0.534876 
31 1 -1.08136 -3.95968 -4.28332 
32 1 5.3484 2.14017 5.31542 
33 1 -6.67708 3.06454 5.83177 
34 1 -0.195538 -0.258089 -4.17466 
35 1 -6.01446 -4.08402 -5.69914 
36 1 2.34307 3.18105 -6.32565 
37 1 0.25261 -0.858657 2.45409 
38 1 -2.93346 -3.79886 -6.17286 
39 1 -6.47647 -4.76369 -3.73382 
40 1 -3.66538 0.335401 2.52613 
41 1 2.64409 -3.67603 4.294 
42 1 -1.6537 -5.17618 -2.47007 
43 1 1.77694 -3.1683 2.27005 
44 1 -4.32955 -6.73259 -5.92995 
45 1 6.35438 -0.955663 -6.56904 
46 1 -0.849755 -1.35043 6.18394 
47 1 0.874371 0.340262 -0.298955 
48 1 3.14281 -3.32502 5.6049 
49 1 -4.81097 -6.01612 1.18099 
50 1 5.16005 2.59732 -6.67385 
51 2 4.8123 -0.409883 0.00218036 
52 2 3.19407 1.39393 -0.528019 
53 2 -1.49869 -1.76864 -6.30922 
54 2 -4.91269 -1.56757 5.00827 
55 2 -3.26081 -2.75148 4.16951 
56 2 5.25665 4.98734 -5.13962 
57 2 4.11984 -6.29534 -1.0078 
58 2 2.48329 -2.48531 -3.31288 
59 2 2.07602 -6.33555 0.22318 
60 2 4.34249 -0.378222 -4.98302 
61 2 3.66989 -4.17112 -1.58912 
62 2 6.64512 2.85911 3.61033 
63 2 2.54497 4.98984 6.24207 
64 2 -6.13642 3.82977 -6.2032 
65 2 -6.51482 -5.69341 0.853779 
66 2 6.58737 5.95728 -5.21439 
67 2 -6.71348 -1.51221 2.39861 
68 2 2.46226 4.06538 5.07748 
69 2 -2.44122 -1.89663 -2.99741 
70 2 -6.29311 -3.13229 4.99532 
71 2 -1.33469 -2.29289 -0.801005 
72 2 3.08492 -0.360993 -5.41327 
73 2 -6.18151 4.79844 3.03891 
74 2 -5.50173 -5.56638 -0.780881 
75 2 -2.01447 2.27585 6.80307 
76 2 3.70304 -1.65615 -4.06025 
77 2 6.08151 -0.991918 3.67767 
78 2 6.79028 1.38247 2.82397 
79 2 -0.538069 -6.06969 -5.53838 
80 2 -5.85232 6.81276 5.5205 
81 2 3.74977 -5.21654 -0.138183 
82 2 0.0573608 -2.65261 5.50316 
83 2 -3.61905 2.05185 -6.51738 
84 2 -4.25774 -4.49927 -2.43061 
85 2 -6.16408 5.07189 1.57334 
86 2 3.60509 0.292926 -3.28748 
87 2 -5.84553 3.92388 5.3598 
88 2 -3.51218 5.72317 4.9342 
89 2 -2.09546 4.82906 4.08379 
90 2 1.28367 0.254812 -4.37687 
91 2 -1.09859 3.28465 -5.99236 
92 2 3.0931 -2.19069 0.542148 
93 2 3.99127 -1.34709 -1.59127 
94 2 1.3216 4.46562 5.41961 
95 2 -3.82486 -3.5386 -0.446088 
96 2 6.34927 6.18762 -0.87324 
97 2 -1.31827 6.65537 -5.59476 
98 2 -6.48488 -2.31835 -6.06594 
99 2 -4.52816 5.04754 4.24253 
100 2 3.29411 2.56892 6.1846 
