ITEM: TIMESTEP
183000
ITEM: NUMBER OF ATOMS
100
ITEM: BOX BOUNDS pp pp pp
-6.83599 6.83599
-6.83599 6.83599
-6.83599 6.83599
ITEM: ATOMS id type x y z 
1 1 -2.65366 -6.61984 -4.54206 
2 1 4.73439 1.34233 0.447583 
3 1 2.34488 2.6915 -5.08531 
4 1 4.61674 6.22208 -4.43806 
5 1 -0.300884 -2.19806 -5.13672 
6 1 -2.93383 3.92603 -5.40062 
7 1 -0.444498 -5.56716 1.80488 
8 1 3.26779 5.23214 4.8401 
9 1 5.51042 -6.32133 -0.209285 
10 1 5.24714 -3.66242 -2.46947 
11 1 -0.0649051 -0.356517 4.21422 
12 1 -1.87353 -4.86921 -5.8039 
13 1 1.43046 -3.14642 -0.588036 
14 1 3.13083 -4.11859 0.00296781 
15 1 -1.19566 0.141365 -0.326447 
16 1 -1.95949 5.2081 -5.28036 
17 1 -5.21715 0.21898 -6.74234 
18 1 -4.66126 0.270394 3.86051 
19 1 2.55254 2.66465 -3.39826 
20 1 -3.85141 -3.47199 1.18554 
21 1 -0.23446 -4.15955 6.2472 
22 1 4.69571 3.84931 6.53147 
23 1 6.70067 -5.60375 -5.01008 
24 1 2.54191 -4.42228 -4.40628 
25 1 5.8939 -3.88809 3.1359 
26 1 -6.31993 0.373515 5.57947 
27 1 -4.87392 2.83869 -3.4628 
28 1 -2.84394 3.3048 3.95014 
29 1 -3.75043 -3.83199 -5.19982 
30 1 -2.73941 -3.26886 0.363382 
31 1 -1.1265 -3.88342 -4.81549 
32 1 4.81991 1.88321 5.23947 
33 1 6.6807 3.12894 5.78134 
34 1 0.0573927 -0.387031 -4.03636 
35 1 -6.14064 -4.06014 -5.41545 
36 1 2.70736 3.02098 -6.26417 
37 1 -0.038324 -0.8121 2.77518 
38 1 -2.967 -3.89876 -6.26961 
39 1 -6.17786 -4.72259 -3.78884 
40 1 -3.41804 0.161683 2.42886 
41 1 2.92004 -3.51036 4.38565 
42 1 -1.82045 -5.21814 -2.21376 
43 1 1.34099 -3.01002 2.11329 
44 1 -4.20619 6.66295 -6.14676 
45 1 6.54714 -0.754371 -6.68122 
46 1 -0.597392 -1.47102 5.89217 
47 1 1.10271 0.5564 -0.318961 
48 1 3.2713 -3.43608 5.67046 
49 1 -4.81918 -6.09898 1.12058 
50 1 5.57139 2.54435 -6.65684 
51 2 4.99039 -0.702132 -0.0269251 
52 2 3.179 1.45302 -0.272371 
53 2 -1.57602 -1.76425 -6.50277 
54 2 -5.109 -1.65723 5.10688 
55 2 -3.4032 -2.66179 4.13157 
56 2 5.04008 5.14127 -5.35546 
57 2 4.13989 -6.22077 -0.547127 
58 2 2.35371 -2.75132 -3.44852 
59 2 1.96749 -6.4347 0.337286 
60 2 4.21592 -0.0626207 -4.89935 
61 2 3.85434 -4.19214 -1.8152 
62 2 -6.73924 2.83045 3.56622 
63 2 2.26047 4.71462 6.00342 
64 2 -5.76967 3.99593 -6.3353 
65 2 -6.461 -5.82905 0.648245 
66 2 6.37763 6.08215 -5.362 
67 2 -6.57049 -1.47457 2.38571 
68 2 2.32079 3.6837 5.20467 
69 2 -2.88226 -2.00932 -3.07056 
70 2 -6.11074 -2.92409 4.50322 
71 2 -1.29611 -2.52541 -1.19427 
72 2 2.93753 -0.508637 -5.34987 
73 2 -6.24003 5.0655 3.13876 
74 2 -5.65483 -5.85649 -1.04149 
75 2 -1.94284 1.94372 -6.82065 
76 2 3.10863 -1.96198 -4.05289 
77 2 5.69515 -0.636305 3.78671 
78 2 -6.78542 1.57327 2.63165 
79 2 -0.573487 -6.34015 -5.8734 
80 2 -5.80714 6.58722 5.3599 
81 2 3.58722 -5.35025 -0.294963 
82 2 -0.00974094 -2.80578 5.70509 
83 2 -3.40817 2.20141 -6.58009 
84 2 -4.51997 -4.46092 -2.23745 
85 2 -5.97767 4.83531 1.53055 
86 2 4.12544 0.127992 -3.33295 
87 2 -5.45723 3.85267 5.375 
88 2 -3.31459 5.73985 5.15292 
89 2 -2.05845 4.4678 4.10351 
90 2 1.1486 0.347989 -4.37868 
91 2 -0.744583 3.33645 -6.59593 
92 2 2.86462 -2.19636 0.599027 
93 2 4.03653 -1.29627 -1.56212 
94 2 1.45472 4.44716 5.31308 
95 2 -3.7962 -3.33163 -0.784933 
96 2 6.15208 6.25952 -1.02897 
97 2 -1.21773 6.45065 -5.49202 
98 2 -6.73858 -2.15349 -6.18681 
99 2 -4.53793 5.03109 4.30357 
100 2 3.58459 2.68916 6.19911 
