ITEM: TIMESTEP
184000
ITEM: NUMBER OF ATOMS
100
ITEM: BOX BOUNDS pp pp pp
-6.83599 6.83599
-6.83599 6.83599
-6.83599 6.83599
ITEM: ATOMS id type x y z 
1 1 -2.56922 -6.57351 -4.59254 
2 1 4.70011 1.33866 0.466553 
3 1 2.40399 2.75117 -5.15016 
4 1 4.55668 6.2494 -4.50364 
5 1 -0.287716 -2.11772 -5.18999 
6 1 -2.9242 3.82087 -5.4667 
7 1 -0.492857 -5.57106 1.64358 
8 1 3.33816 5.23428 4.91502 
9 1 5.59617 -6.39042 -0.201716 
10 1 5.1869 -3.70303 -2.53348 
11 1 -0.110982 -0.369849 4.23426 
12 1 -1.87451 -4.85076 -5.7406 
13 1 1.48972 -3.22011 -0.524774 
14 1 3.18342 -4.0529 0.14058 
15 1 -1.16651 0.0813298 -0.333105 
16 1 -2.01298 5.18677 -5.28049 
17 1 -5.27223 0.337684 -6.63862 
18 1 -4.77578 0.19864 4.00879 
19 1 2.53168 2.71241 -3.36664 
20 1 -3.85995 -3.31841 1.13808 
21 1 -0.253623 -4.16573 6.16499 
22 1 4.83943 3.86088 6.55787 
23 1 6.74208 -5.577 -5.01525 
24 1 2.56128 -4.42129 -4.46106 
25 1 5.90789 -3.8681 3.07724 
26 1 -6.31174 0.304257 5.52659 
27 1 -4.78194 2.85563 -3.50696 
28 1 -2.86343 3.27115 3.84869 
29 1 -3.70634 -3.87688 -5.17516 
30 1 -2.76967 -3.42391 0.294839 
31 1 -1.10703 -3.83058 -4.95578 
32 1 4.68369 1.77451 5.27289 
33 1 6.54394 3.04909 5.79198 
34 1 0.0936191 -0.371791 -4.00943 
35 1 -6.1757 -4.0024 -5.37384 
36 1 2.81636 3.04909 -6.26119 
37 1 -0.16493 -0.880965 2.8637 
38 1 -2.96177 -3.84074 -6.29362 
39 1 -6.07165 -4.71691 -3.79422 
40 1 -3.32667 0.0530486 2.34756 
41 1 2.95447 -3.4251 4.40248 
42 1 -1.85001 -5.25231 -2.19476 
43 1 1.22414 -2.96259 2.05731 
44 1 -4.16228 6.60434 -6.18977 
45 1 6.632 -0.673244 -6.65944 
46 1 -0.490104 -1.46397 5.82685 
47 1 1.17005 0.599463 -0.284016 
48 1 3.34959 -3.48249 5.70623 
49 1 -4.85621 -6.10905 1.16112 
50 1 5.67629 2.56182 -6.67543 
51 2 5.08798 -0.792232 -0.0299895 
52 2 3.17052 1.42925 -0.254351 
53 2 -1.56654 -1.70781 -6.59405 
54 2 -5.1989 -1.67129 5.11913 
55 2 -3.50355 -2.63732 4.13862 
56 2 4.93923 5.17578 -5.41533 
57 2 4.1609 -6.31185 -0.49324 
58 2 2.35631 -2.88056 -3.48902 
59 2 2.00019 -6.46557 0.334065 
60 2 4.18247 -0.0117435 -4.8242 
61 2 3.95327 -4.19043 -1.9606 
62 2 -6.63475 2.82159 3.546 
63 2 2.23838 4.62408 5.92089 
64 2 -5.67098 4.0426 -6.42329 
65 2 -6.45675 -5.87356 0.591581 
66 2 6.40425 6.14319 -5.43256 
67 2 -6.55235 -1.47759 2.37029 
68 2 2.35995 3.56546 5.25495 
69 2 -3.03997 -2.13289 -3.05465 
70 2 -6.04477 -2.84991 4.34997 
71 2 -1.25836 -2.62176 -1.32703 
72 2 2.92346 -0.517339 -5.33356 
73 2 -6.21462 5.10612 3.16448 
74 2 -5.74138 -5.94885 -1.10989 
75 2 -1.9171 1.8163 -6.81241 
76 2 2.86974 -2.06253 -4.06586 
77 2 5.57196 -0.509482 3.83469 
78 2 -6.72266 1.62542 2.58279 
79 2 -0.567399 -6.41497 -5.9614 
80 2 -5.80123 6.50893 5.29908 
81 2 3.43056 -5.28679 -0.312265 
82 2 -0.0396458 -2.86433 5.76421 
83 2 -3.41216 2.24989 -6.56443 
84 2 -4.59746 -4.44444 -2.14045 
85 2 -5.91947 4.76558 1.48759 
86 2 4.29636 0.0805108 -3.38426 
87 2 -5.25902 3.89131 5.3815 
88 2 -3.18967 5.73086 5.24462 
89 2 -2.10846 4.3569 4.05714 
90 2 1.12143 0.305735 -4.43861 
91 2 -0.667507 3.38127 -6.77053 
92 2 2.80533 -2.18198 0.638256 
93 2 4.01841 -1.29651 -1.56451 
94 2 1.42651 4.43542 5.24342 
95 2 -3.72391 -3.26108 -0.813768 
96 2 6.10944 6.291 -1.06657 
97 2 -1.20092 6.36053 -5.41794 
98 2 -6.81859 -2.09234 -6.21285 
99 2 -4.58153 5.04039 4.31721 
100 2 3.69408 2.67257 6.24119 
