ITEM: TIMESTEP
186000
ITEM: NUMBER OF ATOMS
100
ITEM: BOX BOUNDS pp pp pp
-6.83599 6.83599
-6.83599 6.83599
-6.83599 6.83599
ITEM: ATOMS id type x y z 
1 1 -2.48951 -6.36908 -4.7217 
2 1 4.50981 1.36208 0.429711 
3 1 2.59911 2.84162 -5.23125 
4 1 4.52661 6.27068 -4.6032 
5 1 -0.254345 -2.05385 -5.32297 
6 1 -2.87368 3.68132 -5.57018 
7 1 -0.575463 -5.47688 1.42893 
8 1 3.45117 5.2905 5.04247 
9 1 5.81873 -6.56583 -0.18286 
10 1 5.09653 -3.80082 -2.67916 
11 1 -0.121827 -0.319582 4.2292 
12 1 -1.94745 -4.71467 -5.65499 
13 1 1.60161 -3.26061 -0.468333 
14 1 3.40295 -3.92341 0.487175 
15 1 -1.06131 0.00942034 -0.416857 
16 1 -2.01584 5.1461 -5.29026 
17 1 -5.40003 0.490193 -6.4202 
18 1 -5.08908 0.0795182 4.17511 
19 1 2.50069 2.74115 -3.33483 
20 1 -3.93863 -3.09606 1.17632 
21 1 -0.334601 -4.0769 6.11864 
22 1 5.01678 3.87751 6.60455 
23 1 6.80285 -5.45538 -4.90423 
24 1 2.57128 -4.3985 -4.54571 
25 1 5.84494 -3.75832 2.9146 
26 1 -6.21684 0.14046 5.45869 
27 1 -4.7715 2.91028 -3.53123 
28 1 -2.87164 3.1119 3.54761 
29 1 -3.63385 -3.90353 -5.2398 
30 1 -2.81271 -3.59129 0.172171 
31 1 -1.00327 -3.74567 -5.26791 
32 1 4.34281 1.41573 5.18102 
33 1 6.26797 2.9195 5.75053 
34 1 0.144332 -0.338202 -3.88795 
35 1 -6.25049 -3.81138 -5.29035 
36 1 2.99446 3.06178 -6.22156 
37 1 -0.332827 -0.942035 2.95753 
38 1 -2.93755 -3.67034 -6.37099 
39 1 -5.97406 -4.61233 -3.84558 
40 1 -3.23607 -0.104597 2.13282 
41 1 3.02189 -3.21621 4.46181 
42 1 -1.94649 -5.29527 -2.1213 
43 1 0.957983 -2.92037 1.94566 
44 1 -4.17662 6.45723 -6.22699 
45 1 6.7592 -0.496384 -6.66844 
46 1 -0.260592 -1.41025 5.67646 
47 1 1.30552 0.739293 -0.185127 
48 1 3.56181 -3.48023 5.6968 
49 1 -4.89846 -6.13096 1.18085 
50 1 5.85244 2.42866 -6.68973 
51 2 5.34272 -0.978807 -0.0423791 
52 2 3.19622 1.46069 -0.311761 
53 2 -1.50081 -1.54084 -6.77139 
54 2 -5.46729 -1.70692 5.11278 
55 2 -3.51973 -2.50646 4.18148 
56 2 4.81197 5.20399 -5.49818 
57 2 4.17712 -6.53788 -0.395469 
58 2 2.46871 -3.3025 -3.53204 
59 2 2.0469 -6.67163 0.457118 
60 2 4.10792 0.038887 -4.68807 
61 2 4.16798 -4.21345 -2.22747 
62 2 -6.44839 2.81974 3.45044 
63 2 2.2115 4.44993 5.76731 
64 2 -5.48255 4.18542 -6.62362 
65 2 -6.54051 -5.94344 0.522988 
66 2 6.52953 6.30848 -5.59624 
67 2 -6.51775 -1.51851 2.44609 
68 2 2.39226 3.26085 5.34371 
69 2 -3.23276 -2.42172 -3.04251 
70 2 -5.87594 -2.69072 4.12902 
71 2 -1.32996 -2.64795 -1.58331 
72 2 2.85085 -0.450513 -5.28763 
73 2 -6.2499 5.14908 3.14316 
74 2 -5.92211 -6.13316 -1.24797 
75 2 -1.80201 1.60161 -6.73217 
76 2 2.43888 -2.20879 -4.14627 
77 2 5.3185 -0.321231 3.89681 
78 2 -6.67194 1.67727 2.53236 
79 2 -0.632022 -6.62046 -6.06683 
80 2 -5.7652 6.32685 5.26144 
81 2 3.01815 -5.10735 -0.33544 
82 2 -0.159246 -2.99322 5.87127 
83 2 -3.3736 2.34307 -6.5759 
84 2 -4.85856 -4.34029 -1.96975 
85 2 -5.81806 4.6876 1.34777 
86 2 4.60292 0.00978507 -3.59212 
87 2 -4.87413 4.04283 5.3671 
88 2 -2.89035 5.70986 5.42282 
89 2 -2.17894 4.21444 3.95863 
90 2 1.16242 0.260066 -4.4454 
91 2 -0.461394 3.40069 6.55448 
92 2 2.6082 -2.15222 0.724737 
93 2 3.86023 -1.34311 -1.54245 
94 2 1.35746 4.44086 5.14147 
95 2 -3.56848 -3.14781 -0.884045 
96 2 5.96177 6.41609 -1.20025 
97 2 -1.1598 6.13647 -5.37967 
98 2 6.78726 -2.11149 -6.24152 
99 2 -4.63866 5.06717 4.31755 
100 2 3.8697 2.68035 6.30788 
