ITEM: TIMESTEP
187000
ITEM: NUMBER OF ATOMS
100
ITEM: BOX BOUNDS pp pp pp
-6.83599 6.83599
-6.83599 6.83599
-6.83599 6.83599
ITEM: ATOMS id type x y z 
1 1 -2.45471 -6.29551 -4.75914 
2 1 4.62048 1.38477 0.422746 
3 1 2.66235 2.855 -5.2729 
4 1 4.56127 6.30132 -4.68996 
5 1 -0.232611 -2.10047 -5.34853 
6 1 -2.8321 3.63826 -5.62879 
7 1 -0.60449 -5.42336 1.33644 
8 1 3.45525 5.25796 5.14591 
9 1 5.94138 -6.6596 -0.193006 
10 1 5.12783 -3.81646 -2.72194 
11 1 -0.14607 -0.277772 4.21908 
12 1 -1.98979 -4.66531 -5.6167 
13 1 1.6256 -3.32221 -0.489083 
14 1 3.5035 -3.82613 0.643576 
15 1 -1.02623 0.0216263 -0.43533 
16 1 -1.99169 5.0885 -5.23511 
17 1 -5.50724 0.562958 -6.31908 
18 1 -5.30992 0.0372461 4.20642 
19 1 2.43847 2.75969 -3.32344 
20 1 -3.95779 -3.05362 1.2449 
21 1 -0.392239 -4.06274 6.14184 
22 1 5.13269 3.90164 6.57235 
23 1 -6.81195 -5.37989 -4.92809 
24 1 2.62092 -4.44272 -4.53874 
25 1 5.86964 -3.71906 2.84196 
26 1 -6.20551 0.0399662 5.4074 
27 1 -4.78015 2.97993 -3.50744 
28 1 -2.92644 3.04437 3.43586 
29 1 -3.59416 -3.95368 -5.29565 
30 1 -2.80122 -3.6771 0.12609 
31 1 -0.966074 -3.69874 -5.40636 
32 1 4.14795 1.28952 5.18689 
33 1 6.13422 2.90929 5.79251 
34 1 0.111062 -0.311764 -3.87655 
35 1 -6.33339 -3.70715 -5.29842 
36 1 3.08076 3.12752 -6.27016 
37 1 -0.343847 -0.958513 3.02367 
38 1 -2.92553 -3.57895 -6.43271 
39 1 -5.9375 -4.60269 -3.87387 
40 1 -3.19393 -0.173914 2.04193 
41 1 3.02792 -3.10621 4.47574 
42 1 -2.02819 -5.30197 -2.13192 
43 1 0.827946 -2.95149 1.89539 
44 1 -4.19905 6.3756 -6.20573 
45 1 6.76878 -0.396804 -6.60525 
46 1 -0.169611 -1.40264 5.62173 
47 1 1.37414 0.81403 -0.104193 
48 1 3.65934 -3.4972 5.68551 
49 1 -4.95421 -6.1076 1.17047 
50 1 5.92425 2.39136 -6.69142 
51 2 5.50674 -1.06565 -0.0788643 
52 2 3.22655 1.49823 -0.35614 
53 2 -1.44735 -1.41443 -6.8135 
54 2 -5.5604 -1.68409 5.11651 
55 2 -3.45583 -2.37257 4.23332 
56 2 4.73084 5.25786 -5.5213 
57 2 4.18163 -6.68726 -0.315033 
58 2 2.52394 -3.4841 -3.5389 
59 2 2.05965 -6.74425 0.511081 
60 2 4.08466 0.041237 -4.59406 
61 2 4.24043 -4.233 -2.28709 
62 2 -6.37365 2.82691 3.39568 
63 2 2.1962 4.39988 5.73868 
64 2 -5.36743 4.24708 -6.71761 
65 2 -6.56984 -5.95537 0.513362 
66 2 6.50188 6.3685 -5.70191 
67 2 -6.49714 -1.54415 2.49494 
68 2 2.41487 3.15347 5.30672 
69 2 -3.28476 -2.52479 -3.05618 
70 2 -5.79307 -2.59389 4.04423 
71 2 -1.37393 -2.64211 -1.68194 
72 2 2.85126 -0.456056 -5.23602 
73 2 -6.27092 5.18875 3.1166 
74 2 -6.02711 -6.21177 -1.29351 
75 2 -1.76311 1.51255 -6.68598 
76 2 2.24217 -2.29324 -4.16342 
77 2 5.19766 -0.26046 3.91315 
78 2 -6.66769 1.74165 2.49169 
79 2 -0.684889 -6.72488 -6.15076 
80 2 -5.7468 6.2793 5.27 
81 2 2.77486 -5.00758 -0.369273 
82 2 -0.223191 -3.06564 5.93315 
83 2 -3.38458 2.39205 -6.56234 
84 2 -4.97434 -4.27579 -1.93238 
85 2 -5.77065 4.66938 1.29785 
86 2 4.75146 0.0100878 -3.74683 
87 2 -4.66898 4.12253 5.37658 
88 2 -2.73832 5.74583 5.49744 
89 2 -2.20802 4.14166 3.98455 
90 2 1.1917 0.229215 -4.43825 
91 2 -0.340389 3.40372 6.41631 
92 2 2.52508 -2.0894 0.750628 
93 2 3.7828 -1.38978 -1.5268 
94 2 1.30137 4.454 5.11114 
95 2 -3.5561 -3.05686 -0.983281 
96 2 5.9171 6.48212 -1.25176 
97 2 -1.10959 6.0123 -5.37982 
98 2 6.76775 -2.12766 -6.28518 
99 2 -4.68495 5.11622 4.32909 
100 2 3.94501 2.6838 6.2998 
