ITEM: TIMESTEP
188000
ITEM: NUMBER OF ATOMS
100
ITEM: BOX BOUNDS pp pp pp
-6.83599 6.83599
-6.83599 6.83599
-6.83599 6.83599
ITEM: ATOMS id type x y z 
1 1 -2.40278 -6.23484 -4.79189 
2 1 4.70375 1.36082 0.405383 
3 1 2.73028 2.82148 -5.38516 
4 1 4.58297 6.31538 -4.80401 
5 1 -0.247812 -2.12374 -5.40803 
6 1 -2.7528 3.59383 -5.65465 
7 1 -0.60204 -5.40598 1.23663 
8 1 3.49289 5.24983 5.25457 
9 1 6.03827 -6.73707 -0.213936 
10 1 5.25379 -3.80064 -2.80459 
11 1 -0.111894 -0.183612 4.22805 
12 1 -2.06422 -4.62798 -5.51582 
13 1 1.65215 -3.36101 -0.460845 
14 1 3.65542 -3.75545 0.773769 
15 1 -0.984578 0.0712099 -0.483913 
16 1 -1.9791 4.99213 -5.25612 
17 1 -5.62945 0.687513 -6.264 
18 1 -5.53129 -0.0318235 4.23564 
19 1 2.42529 2.8127 -3.34543 
20 1 -3.98509 -3.01594 1.29149 
21 1 -0.410165 -4.21637 6.15209 
22 1 5.20838 3.88554 6.55474 
23 1 -6.7876 -5.30562 -4.96367 
24 1 2.66859 -4.49589 -4.54097 
25 1 5.91496 -3.6711 2.76786 
26 1 -6.20539 -0.0342511 5.36996 
27 1 -4.8031 2.98768 -3.49366 
28 1 -2.94194 2.96739 3.36168 
29 1 -3.62589 -3.97644 -5.37468 
30 1 -2.75886 -3.75534 0.130157 
31 1 -0.938953 -3.59964 -5.52553 
32 1 3.93328 1.21835 5.21469 
33 1 6.0376 2.92475 5.90743 
34 1 0.12586 -0.306274 -3.86582 
35 1 -6.40859 -3.60865 -5.26882 
36 1 3.13566 3.13249 -6.30048 
37 1 -0.325595 -1.00628 3.00028 
38 1 -2.90287 -3.49697 -6.49034 
39 1 -5.94669 -4.60386 -3.85083 
40 1 -3.15512 -0.264806 1.97098 
41 1 3.02125 -2.98117 4.50668 
42 1 -2.13185 -5.32512 -2.13455 
43 1 0.744735 -2.96909 1.84387 
44 1 -4.16199 6.28187 -6.16314 
45 1 6.79843 -0.292388 -6.53659 
46 1 -0.0998331 -1.39363 5.58695 
47 1 1.43724 0.886339 -0.0191842 
48 1 3.778 -3.54068 5.68095 
49 1 -4.98816 -6.06817 1.1939 
50 1 5.94962 2.39306 -6.71946 
51 2 5.66023 -1.15532 -0.0969132 
52 2 3.27767 1.53474 -0.405323 
53 2 -1.35564 -1.29966 6.80694 
54 2 -5.66102 -1.66207 5.15577 
55 2 -3.45487 -2.32225 4.31669 
56 2 4.64114 5.3131 -5.54354 
57 2 4.18612 6.82437 -0.260625 
58 2 2.61975 -3.62917 -3.52465 
59 2 2.08413 -6.73495 0.536009 
60 2 4.04262 0.0181679 -4.49048 
61 2 4.20815 -4.31311 -2.29812 
62 2 -6.31039 2.83856 3.32315 
63 2 2.19182 4.36888 5.73749 
64 2 -5.22159 4.29533 -6.75456 
65 2 -6.5973 -5.95925 0.48155 
66 2 6.47155 6.41213 -5.79549 
67 2 -6.50674 -1.5952 2.58045 
68 2 2.43896 3.02983 5.21302 
69 2 -3.32707 -2.62721 -3.09221 
70 2 -5.75488 -2.46665 3.95156 
71 2 -1.44636 -2.61197 -1.7176 
72 2 2.85274 -0.498055 -5.1867 
73 2 -6.29751 5.24113 3.09354 
74 2 -6.11078 -6.25108 -1.31914 
75 2 -1.69146 1.44495 -6.6294 
76 2 2.08824 -2.32907 -4.2024 
77 2 5.09618 -0.24345 3.92536 
78 2 -6.66454 1.82524 2.49235 
79 2 -0.718316 6.82016 -6.18045 
80 2 -5.7501 6.19122 5.30221 
81 2 2.53472 -4.90062 -0.407464 
82 2 -0.304371 -2.96193 5.97009 
83 2 -3.38409 2.4444 -6.55262 
84 2 -5.00588 -4.19173 -1.92958 
85 2 -5.69393 4.68687 1.28375 
86 2 4.92539 0.0304693 -3.90364 
87 2 -4.48682 4.19298 5.3523 
88 2 -2.62983 5.80746 5.57906 
89 2 -2.28171 4.09681 4.03104 
90 2 1.22025 0.178734 -4.43209 
91 2 -0.248796 3.39735 6.29209 
92 2 2.49446 -2.00874 0.772541 
93 2 3.71066 -1.43754 -1.51013 
94 2 1.2753 4.46339 5.03207 
95 2 -3.50958 -2.98653 -1.12987 
96 2 5.89353 6.55803 -1.30955 
97 2 -1.08275 5.91384 -5.37479 
98 2 6.7429 -2.1452 -6.36226 
99 2 -4.73542 5.16574 4.32994 
100 2 3.96402 2.67745 6.30784 
