ITEM: TIMESTEP
189000
ITEM: NUMBER OF ATOMS
100
ITEM: BOX BOUNDS pp pp pp
-6.83599 6.83599
-6.83599 6.83599
-6.83599 6.83599
ITEM: ATOMS id type x y z 
1 1 -2.34001 -6.17896 -4.84423 
2 1 4.74356 1.34011 0.398128 
3 1 2.79046 2.81866 -5.36825 
4 1 4.54199 6.34158 -4.92448 
5 1 -0.224334 -2.16102 -5.49734 
6 1 -2.68378 3.54177 -5.69419 
7 1 -0.661325 -5.39537 1.11851 
8 1 3.52466 5.25731 5.3955 
9 1 6.13895 -6.81851 -0.23814 
10 1 5.39281 -3.77025 -2.86343 
11 1 -0.0694819 -0.0937396 4.22664 
12 1 -2.12517 -4.60219 -5.47472 
13 1 1.6208 -3.44108 -0.419584 
14 1 3.79619 -3.69847 0.88947 
15 1 -0.948252 0.13842 -0.547566 
16 1 -2.07758 4.89787 -5.25016 
17 1 -5.71573 0.782688 -6.21453 
18 1 -5.74448 -0.0894977 4.28627 
19 1 2.39255 2.84456 -3.30175 
20 1 -4.01321 -2.93425 1.33502 
21 1 -0.405548 -4.35997 6.14197 
22 1 5.22839 3.8901 6.58101 
23 1 -6.77385 -5.23244 -4.95093 
24 1 2.72375 -4.53352 -4.5468 
25 1 5.90916 -3.59175 2.69419 
26 1 -6.20629 -0.101951 5.34639 
27 1 -4.80227 3.01608 -3.4986 
28 1 -2.90325 2.88773 3.26419 
29 1 -3.66198 -3.99331 -5.47344 
30 1 -2.7327 -3.83394 0.071957 
31 1 -0.889257 -3.53115 -5.67721 
32 1 3.76852 1.09747 5.18284 
33 1 5.95702 2.93439 5.99788 
34 1 0.142282 -0.372363 -3.87162 
35 1 -6.45037 -3.59099 -5.25192 
36 1 3.20249 3.10411 -6.36428 
37 1 -0.36142 -1.06862 2.99186 
38 1 -2.89137 -3.41924 -6.52404 
39 1 -5.90734 -4.56976 -3.82497 
40 1 -3.15216 -0.341072 1.88552 
41 1 3.01289 -2.86022 4.53655 
42 1 -2.26109 -5.35126 -2.09593 
43 1 0.669655 -2.98294 1.83547 
44 1 -4.12978 6.20438 -6.10658 
45 1 6.8155 -0.224323 -6.45537 
46 1 -0.077539 -1.45074 5.55337 
47 1 1.50394 0.951621 0.0629777 
48 1 3.92611 -3.59212 5.64507 
49 1 -4.98614 -5.96341 1.2581 
50 1 5.98163 2.415 -6.78126 
51 2 5.8084 -1.23115 -0.0913856 
52 2 3.35799 1.56316 -0.455089 
53 2 -1.26153 -1.19336 6.74131 
54 2 -5.74512 -1.6821 5.16329 
55 2 -3.4716 -2.2138 4.4259 
56 2 4.54424 5.3813 -5.57334 
57 2 4.1586 6.72219 -0.227358 
58 2 2.74444 -3.77626 -3.55019 
59 2 2.08948 -6.724 0.579557 
60 2 3.96363 -0.0153054 -4.40232 
61 2 4.17834 -4.41102 -2.33394 
62 2 -6.2491 2.83405 3.24954 
63 2 2.18713 4.34379 5.74623 
64 2 -5.05498 4.38851 -6.79569 
65 2 -6.66933 -5.96075 0.440946 
66 2 6.44294 6.45356 -5.83669 
67 2 -6.56334 -1.67205 2.65329 
68 2 2.48773 2.88339 5.13908 
69 2 -3.38327 -2.73966 -3.11563 
70 2 -5.74155 -2.32387 3.89098 
71 2 -1.53851 -2.57753 -1.7575 
72 2 2.79691 -0.524068 -5.11802 
73 2 -6.32939 5.30796 3.09106 
74 2 -6.20459 -6.3124 -1.34517 
75 2 -1.58032 1.3988 -6.57483 
76 2 1.89889 -2.38264 -4.25346 
77 2 5.04344 -0.263436 3.93618 
78 2 -6.67938 1.90895 2.48171 
79 2 -0.772234 6.73235 -6.17788 
80 2 -5.75333 6.11653 5.32791 
81 2 2.3765 -4.81733 -0.461829 
82 2 -0.389716 -2.84791 6.05038 
83 2 -3.38465 2.50368 -6.55441 
84 2 -5.01678 -4.13059 -1.91239 
85 2 -5.63927 4.68314 1.25983 
86 2 5.10712 0.0422232 -4.03933 
87 2 -4.34922 4.23953 5.33106 
88 2 -2.55881 5.93026 5.66415 
89 2 -2.36931 4.03299 4.0841 
90 2 1.25963 0.128593 -4.42869 
91 2 -0.147027 3.37054 6.14403 
92 2 2.44064 -1.92096 0.789351 
93 2 3.62762 -1.48247 -1.46749 
94 2 1.29869 4.50259 4.91863 
95 2 -3.46518 -2.94463 -1.2379 
96 2 5.87614 6.64861 -1.3568 
97 2 -1.07843 5.82593 -5.39465 
98 2 6.7478 -2.15153 -6.42503 
99 2 -4.76089 5.22969 4.30981 
100 2 3.97296 2.65703 6.31399 
