ITEM: TIMESTEP
109000
ITEM: NUMBER OF ATOMS
100
ITEM: BOX BOUNDS pp pp pp
-6.83599 6.83599
-6.83599 6.83599
-6.83599 6.83599
ITEM: ATOMS id type x y z 
1 1 6.10331 -2.50623 -5.93704 
2 1 6.05611 -0.361493 2.81948 
3 1 -0.931425 5.3223 -0.418191 
4 1 4.32475 5.36256 -4.80696 
5 1 3.82952 -5.25598 -6.17241 
6 1 -1.13226 6.4983 -2.6648 
7 1 5.06017 6.48584 2.9392 
8 1 -5.76442 4.59977 -4.30551 
9 1 6.08974 -5.52828 -2.20126 
10 1 4.26374 -2.28154 1.09657 
11 1 0.855437 -3.92776 6.63719 
12 1 2.27726 -4.85478 -3.67612 
13 1 1.24893 1.23936 0.386693 
14 1 2.34649 -6.54403 -5.11203 
15 1 0.0226503 1.0264 0.427516 
16 1 -1.24986 -6.24116 0.866767 
17 1 -3.69365 -3.41651 -5.341 
18 1 -5.63604 2.5263 4.64789 
19 1 4.03505 1.84894 -3.06418 
20 1 -6.14689 -1.60228 2.94279 
21 1 1.25815 6.15365 -2.93386 
22 1 2.16324 3.00834 -3.63342 
23 1 -5.88484 5.00636 -5.70166 
24 1 -0.256102 -4.22141 -6.52807 
25 1 3.14016 -1.86105 6.04604 
26 1 5.41214 -1.46232 6.17988 
27 1 -5.96313 2.83785 0.684578 
28 1 -4.10258 4.85238 4.35294 
29 1 -4.29878 -0.273379 -1.00265 
30 1 -4.05956 -2.50328 -3.48262 
31 1 -3.38885 -4.27952 -2.26681 
32 1 6.72519 2.20389 -4.48137 
33 1 5.37866 1.05379 -5.50368 
34 1 -5.98136 3.15696 -5.7584 
35 1 6.83905 5.85901 -2.79222 
36 1 1.04586 1.97779 4.63095 
37 1 1.73297 -2.20517 -0.108342 
38 1 -2.79585 -5.19387 -5.8142 
39 1 -4.99248 -3.50726 -1.38466 
40 1 -3.75585 5.42372 1.89833 
41 1 1.9329 -3.40897 4.65225 
42 1 -0.134339 -6.28189 -0.593796 
43 1 6.28066 -6.73388 -0.747808 
44 1 -4.96321 -2.78508 6.5077 
45 1 5.32147 -5.79117 6.29664 
46 1 -0.307139 0.0672916 -4.19124 
47 1 -0.867097 2.83592 -2.40298 
48 1 2.33112 -3.86981 6.50042 
49 1 5.14379 -5.97475 3.48989 
50 1 3.25315 2.53947 -5.43468 
51 2 4.29311 1.78348 -0.0451359 
52 2 -5.66502 1.81545 -4.87605 
53 2 -3.47888 -0.999644 5.25083 
54 2 -1.58008 -0.654942 -0.0302227 
55 2 -1.18468 -1.69661 4.84393 
56 2 5.22192 -1.59052 -2.11869 
57 2 3.59353 -3.21573 0.337443 
58 2 -0.518768 -0.313334 -0.414753 
59 2 3.52757 6.277 -0.754231 
60 2 4.41892 0.994364 6.43415 
61 2 4.73508 6.31172 -4.65133 
62 2 4.30074 6.00174 1.01469 
63 2 4.53786 4.40616 -5.69566 
64 2 0.397996 4.82887 5.51695 
65 2 6.04025 -3.42716 1.32448 
66 2 -4.35904 3.93618 -5.53795 
67 2 -5.5525 -3.45517 0.540623 
68 2 4.22714 -5.45443 5.30444 
69 2 -3.10346 2.74331 -4.6257 
70 2 -3.39146 -4.11724 6.5653 
71 2 -3.28853 2.85528 -0.620627 
72 2 2.1017 1.13599 -6.74584 
73 2 -2.90211 4.03759 -6.56535 
74 2 -4.34223 -4.89556 1.36207 
75 2 -1.66675 6.28232 -5.94921 
76 2 3.2753 2.38686 1.59428 
77 2 -5.74845 -1.0686 5.91899 
78 2 5.62329 -2.80783 3.76415 
79 2 1.46915 -4.11029 -1.7916 
80 2 -5.18831 3.86924 2.33992 
81 2 6.77852 4.08568 -3.79495 
82 2 0.710105 -5.67298 1.20409 
83 2 -5.40809 0.558456 6.56909 
84 2 -2.84175 -4.26537 2.05623 
85 2 -5.8465 5.62466 -0.225832 
86 2 3.66584 -0.44794 -3.34803 
87 2 3.80915 2.25681 6.60067 
88 2 -4.11313 6.15813 5.31234 
89 2 -5.38848 -6.46427 0.937226 
90 2 1.57221 -1.41278 -4.82082 
91 2 -4.52082 3.80533 -0.971743 
92 2 -5.94249 -5.03934 0.641801 
93 2 3.31151 -0.123367 0.224673 
94 2 -0.690569 6.01567 3.49017 
95 2 -3.25364 -2.06514 -0.617394 
96 2 -4.42595 -6.68332 -1.01227 
97 2 1.4751 -6.05058 -4.11578 
98 2 -1.51147 -3.3443 6.60609 
99 2 -4.31468 -2.64967 5.11507 
100 2 0.0387901 -5.25683 3.08617 
