ITEM: TIMESTEP
190000
ITEM: NUMBER OF ATOMS
100
ITEM: BOX BOUNDS pp pp pp
-6.83599 6.83599
-6.83599 6.83599
-6.83599 6.83599
ITEM: ATOMS id type x y z 
1 1 -2.27913 -6.14019 -4.87917 
2 1 4.73356 1.35435 0.398827 
3 1 2.82267 2.88717 -5.41868 
4 1 4.44373 6.34989 -5.05615 
5 1 -0.182767 -2.16812 -5.55838 
6 1 -2.60509 3.53418 -5.8082 
7 1 -0.689803 -5.40114 0.98599 
8 1 3.56809 5.25269 5.61095 
9 1 6.25544 6.74581 -0.245721 
10 1 5.52822 -3.73761 -2.89712 
11 1 -0.0222828 -0.0375187 4.2111 
12 1 -2.18701 -4.55657 -5.42493 
13 1 1.55507 -3.53005 -0.387259 
14 1 3.92203 -3.65878 1.01503 
15 1 -0.893874 0.185784 -0.603298 
16 1 -2.14464 4.86015 -5.18492 
17 1 -5.78958 0.83445 -6.16485 
18 1 -5.92895 -0.113697 4.3049 
19 1 2.4171 2.84432 -3.24178 
20 1 -4.0699 -2.89623 1.37372 
21 1 -0.417895 -4.48906 6.1747 
22 1 5.25055 3.90442 6.58773 
23 1 -6.77016 -5.11394 -4.89985 
24 1 2.77038 -4.56472 -4.57471 
25 1 5.87713 -3.48976 2.6175 
26 1 -6.19116 -0.225818 5.32602 
27 1 -4.78068 3.04524 -3.48898 
28 1 -2.96766 2.89706 3.14889 
29 1 -3.65074 -4.07454 -5.53899 
30 1 -2.72247 -3.93275 0.053994 
31 1 -0.865784 -3.52213 -5.86456 
32 1 3.67411 0.972917 5.18944 
33 1 5.86486 2.938 5.98139 
34 1 0.160962 -0.44317 -3.84691 
35 1 -6.48704 -3.58058 -5.2574 
36 1 3.25543 3.07224 -6.36311 
37 1 -0.343581 -1.15793 3.01731 
38 1 -2.92346 -3.38454 -6.51994 
39 1 -5.856 -4.58411 -3.83235 
40 1 -3.17243 -0.40818 1.81076 
41 1 3.02456 -2.73667 4.5834 
42 1 -2.34738 -5.32723 -2.06901 
43 1 0.568564 -2.98814 1.8252 
44 1 -4.12771 6.16432 -6.0501 
45 1 -6.8116 -0.143834 -6.36461 
46 1 -0.0710088 -1.57376 5.52434 
47 1 1.57159 1.01617 0.133949 
48 1 4.04871 -3.60961 5.55197 
49 1 -5.0235 -5.86152 1.3566 
50 1 6.03288 2.40263 -6.76219 
51 2 5.86597 -1.307 -0.105846 
52 2 3.44029 1.5734 -0.441534 
53 2 -1.1905 -1.07607 6.66312 
54 2 -5.80189 -1.75122 5.17987 
55 2 -3.44567 -2.11364 4.52388 
56 2 4.41611 5.4504 -5.63186 
57 2 4.13772 6.65201 -0.19507 
58 2 2.83963 -3.92204 -3.61473 
59 2 2.07552 -6.73449 0.650816 
60 2 3.89627 -0.0241353 -4.32737 
61 2 4.20059 -4.45095 -2.38514 
62 2 -6.17792 2.81421 3.18465 
63 2 2.16491 4.30099 5.75717 
64 2 -4.99275 4.53213 6.82365 
65 2 -6.74262 -5.9628 0.361307 
66 2 6.46595 6.48907 -5.83016 
67 2 -6.64466 -1.75384 2.72162 
68 2 2.54022 2.73934 5.12525 
69 2 -3.42603 -2.84522 -3.12402 
70 2 -5.77817 -2.18868 3.83095 
71 2 -1.62997 -2.54712 -1.77163 
72 2 2.72904 -0.535171 -5.0161 
73 2 -6.34591 5.36453 3.10974 
74 2 -6.31729 -6.39658 -1.4252 
75 2 -1.48609 1.39353 -6.56972 
76 2 1.7797 -2.48163 -4.27775 
77 2 5.00585 -0.257879 3.90923 
78 2 -6.68336 2.01733 2.41412 
79 2 -0.816672 6.65529 -6.15203 
80 2 -5.76838 6.02414 5.32099 
81 2 2.22791 -4.72014 -0.495698 
82 2 -0.4587 -2.74375 6.10902 
83 2 -3.39172 2.56736 -6.58944 
84 2 -4.99092 -4.0432 -1.87463 
85 2 -5.63283 4.70429 1.20055 
86 2 5.27373 0.0699981 -4.15791 
87 2 -4.23692 4.28899 5.33552 
88 2 -2.48782 6.08616 5.76608 
89 2 -2.48635 3.96226 4.10754 
90 2 1.31012 0.0870503 -4.4357 
91 2 -0.0402605 3.36416 6.09157 
92 2 2.34434 -1.83879 0.788197 
93 2 3.54497 -1.48422 -1.44266 
94 2 1.29603 4.60212 4.85216 
95 2 -3.46109 -2.89908 -1.33022 
96 2 5.86626 6.73733 -1.40252 
97 2 -1.06413 5.74003 -5.44614 
98 2 6.75261 -2.1541 -6.49054 
99 2 -4.73821 5.28989 4.28389 
100 2 3.97643 2.63389 6.31979 
