ITEM: TIMESTEP
192000
ITEM: NUMBER OF ATOMS
100
ITEM: BOX BOUNDS pp pp pp
-6.83599 6.83599
-6.83599 6.83599
-6.83599 6.83599
ITEM: ATOMS id type x y z 
1 1 -2.23107 -6.09502 -4.86823 
2 1 4.76794 1.40798 0.392343 
3 1 2.90832 2.96509 -5.43051 
4 1 4.32616 6.4247 -5.23198 
5 1 -0.0355817 -2.11104 -5.70348 
6 1 -2.50856 3.3821 -5.9982 
7 1 -0.661481 -5.48969 0.773073 
8 1 3.631 5.33998 5.80199 
9 1 6.4873 6.61789 -0.276872 
10 1 5.8366 -3.57828 -2.90347 
11 1 0.0549678 0.0404613 4.22807 
12 1 -2.31664 -4.45783 -5.34554 
13 1 1.5641 -3.64547 -0.305482 
14 1 4.05923 -3.6577 1.29362 
15 1 -0.81796 0.193604 -0.668737 
16 1 -2.13003 4.87543 -5.1977 
17 1 -6.07825 1.00502 -6.0059 
18 1 -6.16399 -0.237366 4.13367 
19 1 2.26498 2.8086 -3.29244 
20 1 -4.22689 -2.88711 1.48762 
21 1 -0.454384 -4.83376 6.18554 
22 1 5.29212 3.87633 6.5164 
23 1 -6.7697 -4.96895 -4.81217 
24 1 2.82961 -4.59569 -4.67756 
25 1 5.76204 -3.33352 2.51507 
26 1 -6.34357 -0.420161 5.49561 
27 1 -4.68882 3.0103 -3.50179 
28 1 -3.02854 2.84968 2.90709 
29 1 -3.68617 -4.26047 -5.60885 
30 1 -2.77041 -3.98512 0.0804208 
31 1 -0.787223 -3.61169 -6.17804 
32 1 3.49321 0.647786 5.22553 
33 1 5.65159 2.99952 6.04907 
34 1 0.317353 -0.588741 -3.7072 
35 1 -6.69263 -3.54227 -5.34613 
36 1 3.32748 3.1473 -6.42648 
37 1 -0.322569 -1.38857 2.96279 
38 1 -2.98677 -3.25983 -6.44477 
39 1 -5.7439 -4.58311 -3.88767 
40 1 -3.17161 -0.514552 1.7604 
41 1 3.10163 -2.46054 4.70359 
42 1 -2.4233 -5.32225 -2.00174 
43 1 0.290085 -3.10686 1.83285 
44 1 -4.10369 6.17654 -5.95509 
45 1 -6.60222 -0.0848273 -6.17247 
46 1 -0.114187 -1.7871 5.50549 
47 1 1.71961 1.077 0.340999 
48 1 4.23151 -3.62758 5.48617 
49 1 -4.9977 -5.70632 1.54 
50 1 6.06321 2.45069 -6.77182 
51 2 6.05685 -1.48683 -0.178654 
52 2 3.70573 1.69093 -0.433205 
53 2 -1.1746 -0.84433 6.49918 
54 2 -5.91992 -1.91486 5.24198 
55 2 -3.46126 -1.95716 4.72077 
56 2 4.16693 5.48157 -5.92582 
57 2 4.08277 6.50671 -0.0930194 
58 2 2.9903 -4.25379 -3.62216 
59 2 2.20251 -6.65319 0.688705 
60 2 3.73755 -0.0221888 -4.18371 
61 2 4.26152 -4.50975 -2.46376 
62 2 -6.16294 2.68147 3.04025 
63 2 2.17221 4.21183 5.89575 
64 2 -4.96967 4.81217 6.81357 
65 2 6.72282 -5.94721 0.198829 
66 2 6.56593 6.67764 -5.82469 
67 2 6.82207 -1.90212 2.80522 
68 2 2.64066 2.38377 5.06786 
69 2 -3.46368 -3.02198 -3.16346 
70 2 -5.8105 -1.94995 3.69978 
71 2 -1.75664 -2.53202 -1.82742 
72 2 2.60427 -0.623569 -4.82967 
73 2 -6.44591 5.43322 3.12904 
74 2 -6.52635 -6.62169 -1.63763 
75 2 -1.22865 1.31171 -6.56057 
76 2 1.5255 -2.5564 -4.45575 
77 2 4.9832 -0.250902 3.85324 
78 2 -6.58941 2.26996 2.16184 
79 2 -0.878774 6.50139 -6.06091 
80 2 -5.76713 5.84586 5.42068 
81 2 2.0125 -4.57858 -0.570272 
82 2 -0.579097 -2.5393 6.14056 
83 2 -3.36764 2.69919 -6.66234 
84 2 -4.91367 -3.72722 -1.68635 
85 2 -5.62061 4.7657 1.09736 
86 2 5.60639 0.0415051 -4.41065 
87 2 -4.12535 4.33323 5.32287 
88 2 -2.32937 6.39838 5.96152 
89 2 -2.73959 3.74021 4.11031 
90 2 1.45348 0.0854617 -4.46878 
91 2 0.0859993 3.38069 6.06211 
92 2 2.17762 -1.64361 0.739155 
93 2 3.35988 -1.45752 -1.42648 
94 2 1.14321 4.80762 4.76662 
95 2 -3.49721 -2.71254 -1.51638 
96 2 5.95009 -6.81137 -1.41117 
97 2 -1.0224 5.55538 -5.54047 
98 2 6.79649 -2.15222 -6.59539 
99 2 -4.73765 5.39813 4.20473 
100 2 4.01029 2.57617 6.33985 
