ITEM: TIMESTEP
194000
ITEM: NUMBER OF ATOMS
100
ITEM: BOX BOUNDS pp pp pp
-6.83599 6.83599
-6.83599 6.83599
-6.83599 6.83599
ITEM: ATOMS id type x y z 
1 1 -2.25603 -6.11314 -4.775 
2 1 4.632 1.42237 0.421541 
3 1 3.03941 2.98703 -5.38615 
4 1 4.27748 6.45761 -5.41353 
5 1 0.146787 -2.01746 -5.94536 
6 1 -2.42009 3.32861 -6.18685 
7 1 -0.727598 -5.63121 0.709976 
8 1 3.66789 5.46183 6.0994 
9 1 6.60266 6.61038 -0.256382 
10 1 6.09215 -3.47399 -2.94751 
11 1 0.0750575 0.124791 4.26332 
12 1 -2.44053 -4.34221 -5.10552 
13 1 1.57193 -3.54724 -0.325754 
14 1 4.2116 -3.64511 1.62578 
15 1 -0.752469 0.156851 -0.734272 
16 1 -2.13671 4.93475 -5.22945 
17 1 -6.32242 1.19366 -5.86647 
18 1 -6.18374 -0.510898 4.14851 
19 1 2.08934 2.84644 -3.42203 
20 1 -4.31524 -2.88723 1.74688 
21 1 -0.544008 -5.05494 6.17744 
22 1 5.18771 3.99352 6.64594 
23 1 -6.67941 -4.81842 -4.75341 
24 1 2.79226 -4.69114 -4.82591 
25 1 5.57239 -3.2538 2.37949 
26 1 -6.41633 -0.666604 5.61137 
27 1 -4.61542 3.00185 -3.47642 
28 1 -3.12583 2.92665 2.6865 
29 1 -3.80764 -4.34582 -5.7088 
30 1 -2.79053 -4.03641 -0.0246165 
31 1 -0.660076 -3.53091 -6.47052 
32 1 3.39744 0.32713 5.16829 
33 1 5.48425 2.91137 5.96284 
34 1 0.495697 -0.75251 -3.62026 
35 1 6.83318 -3.59437 -5.4668 
36 1 3.32805 3.17452 -6.4593 
37 1 -0.241662 -1.60847 2.91681 
38 1 -3.06572 -3.16171 -6.45443 
39 1 -5.63795 -4.53763 -3.92327 
40 1 -3.20521 -0.597144 1.64591 
41 1 3.24626 -2.39661 4.72769 
42 1 -2.51195 -5.29243 -1.89666 
43 1 0.140573 -3.11103 1.98447 
44 1 -4.20137 6.18538 -5.8855 
45 1 -6.32797 0.0276516 -6.07443 
46 1 -0.0816338 -1.92879 5.35883 
47 1 1.8473 1.18857 0.511742 
48 1 4.48846 -3.59807 5.46602 
49 1 -4.86375 -5.63227 1.62031 
50 1 6.07511 2.46539 6.78578 
51 2 6.19131 -1.77343 -0.165318 
52 2 3.97971 1.80949 -0.418997 
53 2 -1.30398 -0.625523 6.3334 
54 2 -5.93422 -2.13142 5.21927 
55 2 -3.43873 -1.79079 4.87354 
56 2 3.9908 5.55907 -6.20304 
57 2 4.02195 6.46767 0.0309174 
58 2 3.16191 -4.46997 -3.53353 
59 2 2.36993 -6.51046 0.734192 
60 2 3.61512 -0.147513 -3.95419 
61 2 4.24816 -4.44492 -2.53237 
62 2 -6.20412 2.56144 3.00148 
63 2 2.13193 4.16274 6.05631 
64 2 -4.89086 4.9867 6.73158 
65 2 6.54063 -5.95309 -0.0128605 
66 2 6.73488 -6.74069 -5.73062 
67 2 6.56753 -2.03927 2.88163 
68 2 2.9352 2.06568 5.09282 
69 2 -3.56296 -3.18113 -3.04414 
70 2 -5.84736 -1.7845 3.58529 
71 2 -1.94678 -2.51721 -1.87875 
72 2 2.33498 -0.717817 -4.65326 
73 2 -6.60653 5.46275 3.15138 
74 2 -6.69128 6.81587 -1.8181 
75 2 -0.971874 1.28028 -6.57288 
76 2 1.28816 -2.56334 -4.57693 
77 2 5.06141 -0.201658 3.8047 
78 2 -6.54123 2.46139 1.82998 
79 2 -0.928408 6.33436 -5.9875 
80 2 -5.74162 5.6003 5.58193 
81 2 1.82667 -4.62726 -0.698078 
82 2 -0.710453 -2.47441 6.20151 
83 2 -3.23655 2.82643 -6.70611 
84 2 -4.83409 -3.50305 -1.56082 
85 2 -5.74715 4.72516 0.992332 
86 2 5.83325 0.00156736 -4.62839 
87 2 -3.95196 4.47631 5.2977 
88 2 -2.18109 6.76324 6.15802 
89 2 -2.9531 3.55124 4.23073 
90 2 1.66372 0.0886748 -4.42314 
91 2 0.327434 3.36218 5.90216 
92 2 2.03858 -1.45611 0.72022 
93 2 3.24376 -1.3006 -1.34523 
94 2 0.802004 4.8244 4.72542 
95 2 -3.55903 -2.59121 -1.67277 
96 2 6.00737 -6.62646 -1.4108 
97 2 -0.985104 5.36791 -5.59513 
98 2 -6.80746 -2.20519 -6.68028 
99 2 -4.59145 5.49356 4.06578 
100 2 4.06156 2.54394 6.33134 
