ITEM: TIMESTEP
196000
ITEM: NUMBER OF ATOMS
100
ITEM: BOX BOUNDS pp pp pp
-6.83599 6.83599
-6.83599 6.83599
-6.83599 6.83599
ITEM: ATOMS id type x y z 
1 1 -2.24261 -6.13791 -4.65804 
2 1 4.56958 1.42447 0.58062 
3 1 3.1812 3.03433 -5.38293 
4 1 4.29119 6.39713 -5.51158 
5 1 0.278886 -1.81004 -6.12305 
6 1 -2.36005 3.28706 -6.2045 
7 1 -0.885974 -5.88788 0.684709 
8 1 3.64484 5.7975 6.25696 
9 1 6.63452 6.51321 -0.229373 
10 1 6.07463 -3.23072 -2.91456 
11 1 0.0908231 0.101669 4.27822 
12 1 -2.44529 -4.31336 -4.86162 
13 1 1.75364 -3.52 -0.264413 
14 1 4.34362 -3.68235 1.89954 
15 1 -0.716583 0.0424351 -0.824677 
16 1 -2.22033 5.00476 -5.34793 
17 1 -6.50839 1.32033 -5.76693 
18 1 -6.16989 -0.836561 4.23803 
19 1 1.85101 2.92654 -3.49171 
20 1 -4.51138 -2.7281 1.88779 
21 1 -0.652339 -5.24898 6.08423 
22 1 5.08255 4.02499 6.62274 
23 1 -6.5498 -4.59861 -4.69078 
24 1 2.81306 -4.85686 -4.83565 
25 1 5.46731 -3.29413 2.3267 
26 1 -6.45037 -0.844323 5.68813 
27 1 -4.57206 2.96147 -3.5267 
28 1 -3.35247 2.91294 2.53056 
29 1 -4.11506 -4.33721 -5.7257 
30 1 -2.81906 -4.11347 -0.122136 
31 1 -0.607787 -3.62112 -6.812 
32 1 3.37586 0.108401 5.08298 
33 1 5.37676 2.92564 6.06652 
34 1 0.71271 -0.959906 -3.49398 
35 1 6.74597 -3.60593 -5.55702 
36 1 3.27956 3.13714 -6.43114 
37 1 -0.0477985 -1.79653 2.82651 
38 1 -3.18136 -3.14767 -6.45351 
39 1 -5.58339 -4.34516 -4.00967 
40 1 -3.2309 -0.660737 1.63213 
41 1 3.46139 -2.41261 4.74688 
42 1 -2.60631 -5.40171 -1.88577 
43 1 0.076821 -3.07388 2.02772 
44 1 -4.15124 6.22718 -5.69433 
45 1 -6.10032 0.225944 -5.96668 
46 1 -0.0896105 -2.00643 5.18192 
47 1 1.83752 1.17436 0.713089 
48 1 4.70465 -3.48305 5.46256 
49 1 -4.85141 -5.55356 1.56102 
50 1 6.15581 2.40138 6.6409 
51 2 6.29664 -1.90307 -0.0763428 
52 2 4.09901 1.84076 -0.397377 
53 2 -1.56219 -0.47134 6.19828 
54 2 -5.87873 -2.24432 5.26919 
55 2 -3.52844 -1.68481 4.94971 
56 2 3.88178 5.6635 -6.37347 
57 2 3.96551 6.35776 0.113004 
58 2 3.2757 -4.65476 -3.41756 
59 2 2.5184 -6.36757 0.720665 
60 2 3.63672 -0.160746 -3.88531 
61 2 4.19192 -4.52931 -2.55042 
62 2 -6.17821 2.47601 2.96599 
63 2 2.05281 4.09062 6.28612 
64 2 -4.76037 5.2318 6.65137 
65 2 6.40246 -6.02422 -0.262495 
66 2 -6.79843 -6.60751 -5.52046 
67 2 6.3673 -2.133 2.98696 
68 2 3.13285 1.85781 5.16293 
69 2 -3.62293 -3.26343 -3.09564 
70 2 -5.93756 -1.58811 3.46806 
71 2 -2.02602 -2.49193 -1.98591 
72 2 2.21413 -1.06425 -4.52166 
73 2 -6.82073 5.47318 3.12791 
74 2 6.77048 6.59179 -1.96019 
75 2 -0.76134 1.26476 -6.52176 
76 2 0.97863 -2.57812 -4.70284 
77 2 5.1208 0.00411251 3.79319 
78 2 -6.47118 2.66509 1.53108 
79 2 -0.967992 6.19921 -5.92631 
80 2 -5.80228 5.37163 5.77719 
81 2 1.57227 -4.67438 -0.866969 
82 2 -0.882921 -2.40099 6.26879 
83 2 -3.26335 2.93247 6.83203 
84 2 -4.8652 -3.35889 -1.40686 
85 2 -5.74986 4.61521 0.920215 
86 2 6.0205 0.0608991 -4.73244 
87 2 -3.95264 4.57258 5.25754 
88 2 -2.15342 -6.67033 6.31708 
89 2 -3.10727 3.4068 4.37531 
90 2 1.81663 0.0820478 -4.34857 
91 2 0.493698 3.30255 5.80464 
92 2 1.93209 -1.24193 0.705055 
93 2 3.18598 -1.14024 -1.27607 
94 2 0.526967 4.77466 4.67739 
95 2 -3.53751 -2.46065 -1.87446 
96 2 6.041 -6.53172 -1.45573 
97 2 -0.900346 5.0587 -5.56112 
98 2 -6.79284 -2.29384 -6.67374 
99 2 -4.56304 5.61149 3.98555 
100 2 4.06801 2.55929 6.27407 
