ITEM: TIMESTEP
198000
ITEM: NUMBER OF ATOMS
100
ITEM: BOX BOUNDS pp pp pp
-6.83599 6.83599
-6.83599 6.83599
-6.83599 6.83599
ITEM: ATOMS id type x y z 
1 1 -2.11981 -6.11301 -4.6252 
2 1 4.58407 1.4161 0.738889 
3 1 3.23419 3.11673 -5.26907 
4 1 4.33412 6.29566 -5.59152 
5 1 0.421637 -1.67308 -6.35033 
6 1 -2.30427 3.30177 -6.23551 
7 1 -1.06537 -6.19937 0.650227 
8 1 3.51273 6.2075 6.3133 
9 1 6.72908 6.50092 -0.280063 
10 1 6.03504 -2.96718 -2.97574 
11 1 0.126071 0.129521 4.24046 
12 1 -2.40844 -4.26762 -4.52069 
13 1 1.76034 -3.43315 -0.305077 
14 1 4.44569 -3.79051 2.24821 
15 1 -0.718115 -0.101644 -0.873436 
16 1 -2.22418 5.1199 -5.43284 
17 1 -6.61476 1.37428 -5.6555 
18 1 -6.11748 -1.2209 4.51081 
19 1 1.70984 2.97436 -3.6335 
20 1 -4.6701 -2.55328 2.05495 
21 1 -0.831318 -5.31155 6.06068 
22 1 5.12902 3.99265 6.68741 
23 1 -6.5213 -4.39976 -4.67021 
24 1 2.75053 -5.09535 -4.88712 
25 1 5.32856 -3.27764 2.25566 
26 1 -6.57796 -1.09932 5.69942 
27 1 -4.52589 2.93661 -3.47341 
28 1 -3.50297 2.79011 2.37239 
29 1 -4.25351 -4.3308 -5.63449 
30 1 -2.85396 -4.18477 -0.110006 
31 1 -0.660457 -3.67774 6.50711 
32 1 3.23896 -0.0712624 5.12858 
33 1 5.39662 2.94715 6.26352 
34 1 0.812137 -1.24715 -3.41504 
35 1 6.7279 -3.65528 -5.65044 
36 1 3.27865 3.14254 -6.5276 
37 1 -0.0327161 -1.97103 2.71089 
38 1 -3.30717 -3.11102 -6.39937 
39 1 -5.62736 -4.10937 -4.05787 
40 1 -3.20604 -0.88227 1.57172 
41 1 3.53945 -2.33908 4.72858 
42 1 -2.59172 -5.50133 -1.90766 
43 1 -0.0282695 -3.11132 2.01776 
44 1 -4.00941 6.34099 -5.56279 
45 1 -5.93947 0.413872 -5.86172 
46 1 -0.135797 -2.01224 4.95369 
47 1 1.89071 1.20025 0.964908 
48 1 4.77435 -3.40815 5.61797 
49 1 -4.84195 -5.38618 1.66815 
50 1 6.24804 2.37211 6.57099 
51 2 6.39265 -2.04707 0.0435311 
52 2 4.03446 1.84837 -0.449104 
53 2 -1.78992 -0.269656 6.22895 
54 2 -5.86118 -2.33025 5.31936 
55 2 -3.66077 -1.60588 5.01942 
56 2 3.81696 5.73102 -6.34227 
57 2 3.84046 6.36646 0.19759 
58 2 3.44971 -4.83979 -3.2753 
59 2 2.67612 -6.24218 0.824873 
60 2 3.61045 -0.207003 -3.79131 
61 2 4.13179 -4.60601 -2.54209 
62 2 -6.20027 2.31878 2.81874 
63 2 1.91258 3.91338 6.49344 
64 2 -4.68638 5.43682 6.50346 
65 2 6.30294 -6.03374 -0.502539 
66 2 -6.65274 -6.51478 -5.35764 
67 2 6.10867 -2.27221 3.05007 
68 2 3.24015 1.62993 5.23506 
69 2 -3.6702 -3.37093 -3.22148 
70 2 -6.08254 -1.43312 3.25813 
71 2 -2.05776 -2.55811 -2.23979 
72 2 2.17473 -1.41872 -4.51434 
73 2 6.59244 5.51746 3.0351 
74 2 6.62999 6.40875 -2.01133 
75 2 -0.437532 1.22038 -6.39823 
76 2 0.724239 -2.68062 -4.96494 
77 2 5.16939 0.235671 3.75858 
78 2 -6.23702 2.93497 1.36106 
79 2 -0.991377 6.12464 -5.8692 
80 2 -5.79031 5.01036 5.98093 
81 2 1.34618 -4.61246 -1.12653 
82 2 -1.03045 -2.26959 6.39053 
83 2 -3.29019 2.98893 -6.83459 
84 2 -4.96105 -3.30593 -1.31763 
85 2 -5.69263 4.39103 0.927307 
86 2 6.14356 0.200089 -4.65031 
87 2 -4.03377 4.55667 5.2703 
88 2 -2.20318 -6.62408 6.43283 
89 2 -3.21452 3.1327 4.40358 
90 2 1.8663 0.0357633 -4.25183 
91 2 0.691084 3.1634 5.67462 
92 2 1.84922 -1.08899 0.741789 
93 2 3.10321 -0.944241 -1.14631 
94 2 0.223586 4.79025 4.66007 
95 2 -3.48601 -2.29128 -2.10991 
96 2 6.01066 -6.45865 -1.42995 
97 2 -0.778733 4.62702 -5.50107 
98 2 -6.71724 -2.32325 -6.71392 
99 2 -4.63345 5.74275 3.95592 
100 2 3.99342 2.5629 6.19121 
